V -t * -v 1.0a5 -a 0
A -t * -n 1 -p 0 -o 0x7fffffff -c 30 -a 1
A -t * -h 1 -m 1073741823 -s 0
n -t * -a 0 -s 0 -S UP -v circle -c black -i black
n -t * -a 1 -s 1 -S UP -v circle -c black -i black
l -t * -s 0 -d 1 -S UP -r 2000000 -D 0.01 -c black
+ -t 2 -s 0 -d 1 -p cbr -e 210 -c 1 -i 0 -a 1 -x {0.0 1.0 0 ------- null}
- -t 2 -s 0 -d 1 -p cbr -e 210 -c 1 -i 0 -a 1 -x {0.0 1.0 0 ------- null}
h -t 2 -s 0 -d 1 -p cbr -e 210 -c 1 -i 0 -a 1 -x {0.0 1.0 -1 ------- null}
+ -t 2.00375 -s 0 -d 1 -p cbr -e 210 -c 1 -i 1 -a 1 -x {0.0 1.0 1 ------- null}
- -t 2.00375 -s 0 -d 1 -p cbr -e 210 -c 1 -i 1 -a 1 -x {0.0 1.0 1 ------- null}
h -t 2.00375 -s 0 -d 1 -p cbr -e 210 -c 1 -i 1 -a 1 -x {0.0 1.0 -1 ------- null}
+ -t 2.0075 -s 0 -d 1 -p cbr -e 210 -c 1 -i 2 -a 1 -x {0.0 1.0 2 ------- null}
- -t 2.0075 -s 0 -d 1 -p cbr -e 210 -c 1 -i 2 -a 1 -x {0.0 1.0 2 ------- null}
h -t 2.0075 -s 0 -d 1 -p cbr -e 210 -c 1 -i 2 -a 1 -x {0.0 1.0 -1 ------- null}
r -t 2.01084 -s 0 -d 1 -p cbr -e 210 -c 1 -i 0 -a 1 -x {0.0 1.0 0 ------- null}
+ -t 2.01125 -s 0 -d 1 -p cbr -e 210 -c 1 -i 3 -a 1 -x {0.0 1.0 3 ------- null}
- -t 2.01125 -s 0 -d 1 -p cbr -e 210 -c 1 -i 3 -a 1 -x {0.0 1.0 3 ------- null}
h -t 2.01125 -s 0 -d 1 -p cbr -e 210 -c 1 -i 3 -a 1 -x {0.0 1.0 -1 ------- null}
r -t 2.01459 -s 0 -d 1 -p cbr -e 210 -c 1 -i 1 -a 1 -x {0.0 1.0 1 ------- null}
+ -t 2.015 -s 0 -d 1 -p cbr -e 210 -c 1 -i 4 -a 1 -x {0.0 1.0 4 ------- null}
- -t 2.015 -s 0 -d 1 -p cbr -e 210 -c 1 -i 4 -a 1 -x {0.0 1.0 4 ------- null}
h -t 2.015 -s 0 -d 1 -p cbr -e 210 -c 1 -i 4 -a 1 -x {0.0 1.0 -1 ------- null}
r -t 2.01834 -s 0 -d 1 -p cbr -e 210 -c 1 -i 2 -a 1 -x {0.0 1.0 2 ------- null}
+ -t 2.01875 -s 0 -d 1 -p cbr -e 210 -c 1 -i 5 -a 1 -x {0.0 1.0 5 ------- null}
- -t 2.01875 -s 0 -d 1 -p cbr -e 210 -c 1 -i 5 -a 1 -x {0.0 1.0 5 ------- null}
h -t 2.01875 -s 0 -d 1 -p cbr -e 210 -c 1 -i 5 -a 1 -x {0.0 1.0 -1 ------- null}
r -t 2.02209 -s 0 -d 1 -p cbr -e 210 -c 1 -i 3 -a 1 -x {0.0 1.0 3 ------- null}
+ -t 2.0225 -s 0 -d 1 -p cbr -e 210 -c 1 -i 6 -a 1 -x {0.0 1.0 6 ------- null}
- -t 2.0225 -s 0 -d 1 -p cbr -e 210 -c 1 -i 6 -a 1 -x {0.0 1.0 6 ------- null}
h -t 2.0225 -s 0 -d 1 -p cbr -e 210 -c 1 -i 6 -a 1 -x {0.0 1.0 -1 ------- null}
r -t 2.02584 -s 0 -d 1 -p cbr -e 210 -c 1 -i 4 -a 1 -x {0.0 1.0 4 ------- null}
+ -t 2.02625 -s 0 -d 1 -p cbr -e 210 -c 1 -i 7 -a 1 -x {0.0 1.0 7 ------- null}
- -t 2.02625 -s 0 -d 1 -p cbr -e 210 -c 1 -i 7 -a 1 -x {0.0 1.0 7 ------- null}
h -t 2.02625 -s 0 -d 1 -p cbr -e 210 -c 1 -i 7 -a 1 -x {0.0 1.0 -1 ------- null}
r -t 2.02959 -s 0 -d 1 -p cbr -e 210 -c 1 -i 5 -a 1 -x {0.0 1.0 5 ------- null}
+ -t 2.03 -s 0 -d 1 -p cbr -e 210 -c 1 -i 8 -a 1 -x {0.0 1.0 8 ------- null}
- -t 2.03 -s 0 -d 1 -p cbr -e 210 -c 1 -i 8 -a 1 -x {0.0 1.0 8 ------- null}
h -t 2.03 -s 0 -d 1 -p cbr -e 210 -c 1 -i 8 -a 1 -x {0.0 1.0 -1 ------- null}
r -t 2.03334 -s 0 -d 1 -p cbr -e 210 -c 1 -i 6 -a 1 -x {0.0 1.0 6 ------- null}
+ -t 2.03375 -s 0 -d 1 -p cbr -e 210 -c 1 -i 9 -a 1 -x {0.0 1.0 9 ------- null}
- -t 2.03375 -s 0 -d 1 -p cbr -e 210 -c 1 -i 9 -a 1 -x {0.0 1.0 9 ------- null}
h -t 2.03375 -s 0 -d 1 -p cbr -e 210 -c 1 -i 9 -a 1 -x {0.0 1.0 -1 ------- null}
r -t 2.03709 -s 0 -d 1 -p cbr -e 210 -c 1 -i 7 -a 1 -x {0.0 1.0 7 ------- null}
+ -t 2.0375 -s 0 -d 1 -p cbr -e 210 -c 1 -i 10 -a 1 -x {0.0 1.0 10 ------- null}
- -t 2.0375 -s 0 -d 1 -p cbr -e 210 -c 1 -i 10 -a 1 -x {0.0 1.0 10 ------- null}
h -t 2.0375 -s 0 -d 1 -p cbr -e 210 -c 1 -i 10 -a 1 -x {0.0 1.0 -1 ------- null}
r -t 2.04084 -s 0 -d 1 -p cbr -e 210 -c 1 -i 8 -a 1 -x {0.0 1.0 8 ------- null}
+ -t 2.04125 -s 0 -d 1 -p cbr -e 210 -c 1 -i 11 -a 1 -x {0.0 1.0 11 ------- null}
- -t 2.04125 -s 0 -d 1 -p cbr -e 210 -c 1 -i 11 -a 1 -x {0.0 1.0 11 ------- null}
h -t 2.04125 -s 0 -d 1 -p cbr -e 210 -c 1 -i 11 -a 1 -x {0.0 1.0 -1 ------- null}
r -t 2.04459 -s 0 -d 1 -p cbr -e 210 -c 1 -i 9 -a 1 -x {0.0 1.0 9 ------- null}
+ -t 2.045 -s 0 -d 1 -p cbr -e 210 -c 1 -i 12 -a 1 -x {0.0 1.0 12 ------- null}
- -t 2.045 -s 0 -d 1 -p cbr -e 210 -c 1 -i 12 -a 1 -x {0.0 1.0 12 ------- null}
h -t 2.045 -s 0 -d 1 -p cbr -e 210 -c 1 -i 12 -a 1 -x {0.0 1.0 -1 ------- null}
r -t 2.04834 -s 0 -d 1 -p cbr -e 210 -c 1 -i 10 -a 1 -x {0.0 1.0 10 ------- null}
+ -t 2.04875 -s 0 -d 1 -p cbr -e 210 -c 1 -i 13 -a 1 -x {0.0 1.0 13 ------- null}
- -t 2.04875 -s 0 -d 1 -p cbr -e 210 -c 1 -i 13 -a 1 -x {0.0 1.0 13 ------- null}
h -t 2.04875 -s 0 -d 1 -p cbr -e 210 -c 1 -i 13 -a 1 -x {0.0 1.0 -1 ------- null}
r -t 2.05209 -s 0 -d 1 -p cbr -e 210 -c 1 -i 11 -a 1 -x {0.0 1.0 11 ------- null}
+ -t 2.0525 -s 0 -d 1 -p cbr -e 210 -c 1 -i 14 -a 1 -x {0.0 1.0 14 ------- null}
- -t 2.0525 -s 0 -d 1 -p cbr -e 210 -c 1 -i 14 -a 1 -x {0.0 1.0 14 ------- null}
h -t 2.0525 -s 0 -d 1 -p cbr -e 210 -c 1 -i 14 -a 1 -x {0.0 1.0 -1 ------- null}
r -t 2.05584 -s 0 -d 1 -p cbr -e 210 -c 1 -i 12 -a 1 -x {0.0 1.0 12 ------- null}
+ -t 2.05625 -s 0 -d 1 -p cbr -e 210 -c 1 -i 15 -a 1 -x {0.0 1.0 15 ------- null}
- -t 2.05625 -s 0 -d 1 -p cbr -e 210 -c 1 -i 15 -a 1 -x {0.0 1.0 15 ------- null}
h -t 2.05625 -s 0 -d 1 -p cbr -e 210 -c 1 -i 15 -a 1 -x {0.0 1.0 -1 ------- null}
r -t 2.05959 -s 0 -d 1 -p cbr -e 210 -c 1 -i 13 -a 1 -x {0.0 1.0 13 ------- null}
+ -t 2.06 -s 0 -d 1 -p cbr -e 210 -c 1 -i 16 -a 1 -x {0.0 1.0 16 ------- null}
- -t 2.06 -s 0 -d 1 -p cbr -e 210 -c 1 -i 16 -a 1 -x {0.0 1.0 16 ------- null}
h -t 2.06 -s 0 -d 1 -p cbr -e 210 -c 1 -i 16 -a 1 -x {0.0 1.0 -1 ------- null}
r -t 2.06334 -s 0 -d 1 -p cbr -e 210 -c 1 -i 14 -a 1 -x {0.0 1.0 14 ------- null}
+ -t 2.06375 -s 0 -d 1 -p cbr -e 210 -c 1 -i 17 -a 1 -x {0.0 1.0 17 ------- null}
- -t 2.06375 -s 0 -d 1 -p cbr -e 210 -c 1 -i 17 -a 1 -x {0.0 1.0 17 ------- null}
h -t 2.06375 -s 0 -d 1 -p cbr -e 210 -c 1 -i 17 -a 1 -x {0.0 1.0 -1 ------- null}
r -t 2.06709 -s 0 -d 1 -p cbr -e 210 -c 1 -i 15 -a 1 -x {0.0 1.0 15 ------- null}
+ -t 2.0675 -s 0 -d 1 -p cbr -e 210 -c 1 -i 18 -a 1 -x {0.0 1.0 18 ------- null}
- -t 2.0675 -s 0 -d 1 -p cbr -e 210 -c 1 -i 18 -a 1 -x {0.0 1.0 18 ------- null}
h -t 2.0675 -s 0 -d 1 -p cbr -e 210 -c 1 -i 18 -a 1 -x {0.0 1.0 -1 ------- null}
r -t 2.07084 -s 0 -d 1 -p cbr -e 210 -c 1 -i 16 -a 1 -x {0.0 1.0 16 ------- null}
+ -t 2.07125 -s 0 -d 1 -p cbr -e 210 -c 1 -i 19 -a 1 -x {0.0 1.0 19 ------- null}
- -t 2.07125 -s 0 -d 1 -p cbr -e 210 -c 1 -i 19 -a 1 -x {0.0 1.0 19 ------- null}
h -t 2.07125 -s 0 -d 1 -p cbr -e 210 -c 1 -i 19 -a 1 -x {0.0 1.0 -1 ------- null}
r -t 2.07459 -s 0 -d 1 -p cbr -e 210 -c 1 -i 17 -a 1 -x {0.0 1.0 17 ------- null}
+ -t 2.075 -s 0 -d 1 -p cbr -e 210 -c 1 -i 20 -a 1 -x {0.0 1.0 20 ------- null}
- -t 2.075 -s 0 -d 1 -p cbr -e 210 -c 1 -i 20 -a 1 -x {0.0 1.0 20 ------- null}
h -t 2.075 -s 0 -d 1 -p cbr -e 210 -c 1 -i 20 -a 1 -x {0.0 1.0 -1 ------- null}
r -t 2.07834 -s 0 -d 1 -p cbr -e 210 -c 1 -i 18 -a 1 -x {0.0 1.0 18 ------- null}
+ -t 2.07875 -s 0 -d 1 -p cbr -e 210 -c 1 -i 21 -a 1 -x {0.0 1.0 21 ------- null}
- -t 2.07875 -s 0 -d 1 -p cbr -e 210 -c 1 -i 21 -a 1 -x {0.0 1.0 21 ------- null}
h -t 2.07875 -s 0 -d 1 -p cbr -e 210 -c 1 -i 21 -a 1 -x {0.0 1.0 -1 ------- null}
r -t 2.08209 -s 0 -d 1 -p cbr -e 210 -c 1 -i 19 -a 1 -x {0.0 1.0 19 ------- null}
+ -t 2.0825 -s 0 -d 1 -p cbr -e 210 -c 1 -i 22 -a 1 -x {0.0 1.0 22 ------- null}
- -t 2.0825 -s 0 -d 1 -p cbr -e 210 -c 1 -i 22 -a 1 -x {0.0 1.0 22 ------- null}
h -t 2.0825 -s 0 -d 1 -p cbr -e 210 -c 1 -i 22 -a 1 -x {0.0 1.0 -1 ------- null}
r -t 2.08584 -s 0 -d 1 -p cbr -e 210 -c 1 -i 20 -a 1 -x {0.0 1.0 20 ------- null}
+ -t 2.08625 -s 0 -d 1 -p cbr -e 210 -c 1 -i 23 -a 1 -x {0.0 1.0 23 ------- null}
- -t 2.08625 -s 0 -d 1 -p cbr -e 210 -c 1 -i 23 -a 1 -x {0.0 1.0 23 ------- null}
h -t 2.08625 -s 0 -d 1 -p cbr -e 210 -c 1 -i 23 -a 1 -x {0.0 1.0 -1 ------- null}
r -t 2.08959 -s 0 -d 1 -p cbr -e 210 -c 1 -i 21 -a 1 -x {0.0 1.0 21 ------- null}
+ -t 2.09 -s 0 -d 1 -p cbr -e 210 -c 1 -i 24 -a 1 -x {0.0 1.0 24 ------- null}
- -t 2.09 -s 0 -d 1 -p cbr -e 210 -c 1 -i 24 -a 1 -x {0.0 1.0 24 ------- null}
h -t 2.09 -s 0 -d 1 -p cbr -e 210 -c 1 -i 24 -a 1 -x {0.0 1.0 -1 ------- null}
r -t 2.09334 -s 0 -d 1 -p cbr -e 210 -c 1 -i 22 -a 1 -x {0.0 1.0 22 ------- null}
+ -t 2.09375 -s 0 -d 1 -p cbr -e 210 -c 1 -i 25 -a 1 -x {0.0 1.0 25 ------- null}
- -t 2.09375 -s 0 -d 1 -p cbr -e 210 -c 1 -i 25 -a 1 -x {0.0 1.0 25 ------- null}
h -t 2.09375 -s 0 -d 1 -p cbr -e 210 -c 1 -i 25 -a 1 -x {0.0 1.0 -1 ------- null}
r -t 2.09709 -s 0 -d 1 -p cbr -e 210 -c 1 -i 23 -a 1 -x {0.0 1.0 23 ------- null}
+ -t 2.0975 -s 0 -d 1 -p cbr -e 210 -c 1 -i 26 -a 1 -x {0.0 1.0 26 ------- null}
- -t 2.0975 -s 0 -d 1 -p cbr -e 210 -c 1 -i 26 -a 1 -x {0.0 1.0 26 ------- null}
h -t 2.0975 -s 0 -d 1 -p cbr -e 210 -c 1 -i 26 -a 1 -x {0.0 1.0 -1 ------- null}
r -t 2.10084 -s 0 -d 1 -p cbr -e 210 -c 1 -i 24 -a 1 -x {0.0 1.0 24 ------- null}
+ -t 2.10125 -s 0 -d 1 -p cbr -e 210 -c 1 -i 27 -a 1 -x {0.0 1.0 27 ------- null}
- -t 2.10125 -s 0 -d 1 -p cbr -e 210 -c 1 -i 27 -a 1 -x {0.0 1.0 27 ------- null}
h -t 2.10125 -s 0 -d 1 -p cbr -e 210 -c 1 -i 27 -a 1 -x {0.0 1.0 -1 ------- null}
r -t 2.10459 -s 0 -d 1 -p cbr -e 210 -c 1 -i 25 -a 1 -x {0.0 1.0 25 ------- null}
+ -t 2.105 -s 0 -d 1 -p cbr -e 210 -c 1 -i 28 -a 1 -x {0.0 1.0 28 ------- null}
- -t 2.105 -s 0 -d 1 -p cbr -e 210 -c 1 -i 28 -a 1 -x {0.0 1.0 28 ------- null}
h -t 2.105 -s 0 -d 1 -p cbr -e 210 -c 1 -i 28 -a 1 -x {0.0 1.0 -1 ------- null}
r -t 2.10834 -s 0 -d 1 -p cbr -e 210 -c 1 -i 26 -a 1 -x {0.0 1.0 26 ------- null}
+ -t 2.10875 -s 0 -d 1 -p cbr -e 210 -c 1 -i 29 -a 1 -x {0.0 1.0 29 ------- null}
- -t 2.10875 -s 0 -d 1 -p cbr -e 210 -c 1 -i 29 -a 1 -x {0.0 1.0 29 ------- null}
h -t 2.10875 -s 0 -d 1 -p cbr -e 210 -c 1 -i 29 -a 1 -x {0.0 1.0 -1 ------- null}
r -t 2.11209 -s 0 -d 1 -p cbr -e 210 -c 1 -i 27 -a 1 -x {0.0 1.0 27 ------- null}
+ -t 2.1125 -s 0 -d 1 -p cbr -e 210 -c 1 -i 30 -a 1 -x {0.0 1.0 30 ------- null}
- -t 2.1125 -s 0 -d 1 -p cbr -e 210 -c 1 -i 30 -a 1 -x {0.0 1.0 30 ------- null}
h -t 2.1125 -s 0 -d 1 -p cbr -e 210 -c 1 -i 30 -a 1 -x {0.0 1.0 -1 ------- null}
r -t 2.11584 -s 0 -d 1 -p cbr -e 210 -c 1 -i 28 -a 1 -x {0.0 1.0 28 ------- null}
+ -t 2.11625 -s 0 -d 1 -p cbr -e 210 -c 1 -i 31 -a 1 -x {0.0 1.0 31 ------- null}
- -t 2.11625 -s 0 -d 1 -p cbr -e 210 -c 1 -i 31 -a 1 -x {0.0 1.0 31 ------- null}
h -t 2.11625 -s 0 -d 1 -p cbr -e 210 -c 1 -i 31 -a 1 -x {0.0 1.0 -1 ------- null}
r -t 2.11959 -s 0 -d 1 -p cbr -e 210 -c 1 -i 29 -a 1 -x {0.0 1.0 29 ------- null}
+ -t 2.12 -s 0 -d 1 -p cbr -e 210 -c 1 -i 32 -a 1 -x {0.0 1.0 32 ------- null}
- -t 2.12 -s 0 -d 1 -p cbr -e 210 -c 1 -i 32 -a 1 -x {0.0 1.0 32 ------- null}
h -t 2.12 -s 0 -d 1 -p cbr -e 210 -c 1 -i 32 -a 1 -x {0.0 1.0 -1 ------- null}
r -t 2.12334 -s 0 -d 1 -p cbr -e 210 -c 1 -i 30 -a 1 -x {0.0 1.0 30 ------- null}
+ -t 2.12375 -s 0 -d 1 -p cbr -e 210 -c 1 -i 33 -a 1 -x {0.0 1.0 33 ------- null}
- -t 2.12375 -s 0 -d 1 -p cbr -e 210 -c 1 -i 33 -a 1 -x {0.0 1.0 33 ------- null}
h -t 2.12375 -s 0 -d 1 -p cbr -e 210 -c 1 -i 33 -a 1 -x {0.0 1.0 -1 ------- null}
r -t 2.12709 -s 0 -d 1 -p cbr -e 210 -c 1 -i 31 -a 1 -x {0.0 1.0 31 ------- null}
+ -t 2.1275 -s 0 -d 1 -p cbr -e 210 -c 1 -i 34 -a 1 -x {0.0 1.0 34 ------- null}
- -t 2.1275 -s 0 -d 1 -p cbr -e 210 -c 1 -i 34 -a 1 -x {0.0 1.0 34 ------- null}
h -t 2.1275 -s 0 -d 1 -p cbr -e 210 -c 1 -i 34 -a 1 -x {0.0 1.0 -1 ------- null}
r -t 2.13084 -s 0 -d 1 -p cbr -e 210 -c 1 -i 32 -a 1 -x {0.0 1.0 32 ------- null}
+ -t 2.13125 -s 0 -d 1 -p cbr -e 210 -c 1 -i 35 -a 1 -x {0.0 1.0 35 ------- null}
- -t 2.13125 -s 0 -d 1 -p cbr -e 210 -c 1 -i 35 -a 1 -x {0.0 1.0 35 ------- null}
h -t 2.13125 -s 0 -d 1 -p cbr -e 210 -c 1 -i 35 -a 1 -x {0.0 1.0 -1 ------- null}
r -t 2.13459 -s 0 -d 1 -p cbr -e 210 -c 1 -i 33 -a 1 -x {0.0 1.0 33 ------- null}
+ -t 2.13500000000001 -s 0 -d 1 -p cbr -e 210 -c 1 -i 36 -a 1 -x {0.0 1.0 36 ------- null}
- -t 2.13500000000001 -s 0 -d 1 -p cbr -e 210 -c 1 -i 36 -a 1 -x {0.0 1.0 36 ------- null}
h -t 2.13500000000001 -s 0 -d 1 -p cbr -e 210 -c 1 -i 36 -a 1 -x {0.0 1.0 -1 ------- null}
r -t 2.13834 -s 0 -d 1 -p cbr -e 210 -c 1 -i 34 -a 1 -x {0.0 1.0 34 ------- null}
+ -t 2.13875000000001 -s 0 -d 1 -p cbr -e 210 -c 1 -i 37 -a 1 -x {0.0 1.0 37 ------- null}
- -t 2.13875000000001 -s 0 -d 1 -p cbr -e 210 -c 1 -i 37 -a 1 -x {0.0 1.0 37 ------- null}
h -t 2.13875000000001 -s 0 -d 1 -p cbr -e 210 -c 1 -i 37 -a 1 -x {0.0 1.0 -1 ------- null}
r -t 2.14209 -s 0 -d 1 -p cbr -e 210 -c 1 -i 35 -a 1 -x {0.0 1.0 35 ------- null}
+ -t 2.14250000000001 -s 0 -d 1 -p cbr -e 210 -c 1 -i 38 -a 1 -x {0.0 1.0 38 ------- null}
- -t 2.14250000000001 -s 0 -d 1 -p cbr -e 210 -c 1 -i 38 -a 1 -x {0.0 1.0 38 ------- null}
h -t 2.14250000000001 -s 0 -d 1 -p cbr -e 210 -c 1 -i 38 -a 1 -x {0.0 1.0 -1 ------- null}
r -t 2.14584000000001 -s 0 -d 1 -p cbr -e 210 -c 1 -i 36 -a 1 -x {0.0 1.0 36 ------- null}
+ -t 2.14625000000001 -s 0 -d 1 -p cbr -e 210 -c 1 -i 39 -a 1 -x {0.0 1.0 39 ------- null}
- -t 2.14625000000001 -s 0 -d 1 -p cbr -e 210 -c 1 -i 39 -a 1 -x {0.0 1.0 39 ------- null}
h -t 2.14625000000001 -s 0 -d 1 -p cbr -e 210 -c 1 -i 39 -a 1 -x {0.0 1.0 -1 ------- null}
r -t 2.14959000000001 -s 0 -d 1 -p cbr -e 210 -c 1 -i 37 -a 1 -x {0.0 1.0 37 ------- null}
+ -t 2.15000000000001 -s 0 -d 1 -p cbr -e 210 -c 1 -i 40 -a 1 -x {0.0 1.0 40 ------- null}
- -t 2.15000000000001 -s 0 -d 1 -p cbr -e 210 -c 1 -i 40 -a 1 -x {0.0 1.0 40 ------- null}
h -t 2.15000000000001 -s 0 -d 1 -p cbr -e 210 -c 1 -i 40 -a 1 -x {0.0 1.0 -1 ------- null}
r -t 2.15334000000001 -s 0 -d 1 -p cbr -e 210 -c 1 -i 38 -a 1 -x {0.0 1.0 38 ------- null}
+ -t 2.15375000000001 -s 0 -d 1 -p cbr -e 210 -c 1 -i 41 -a 1 -x {0.0 1.0 41 ------- null}
- -t 2.15375000000001 -s 0 -d 1 -p cbr -e 210 -c 1 -i 41 -a 1 -x {0.0 1.0 41 ------- null}
h -t 2.15375000000001 -s 0 -d 1 -p cbr -e 210 -c 1 -i 41 -a 1 -x {0.0 1.0 -1 ------- null}
r -t 2.15709000000001 -s 0 -d 1 -p cbr -e 210 -c 1 -i 39 -a 1 -x {0.0 1.0 39 ------- null}
+ -t 2.15750000000001 -s 0 -d 1 -p cbr -e 210 -c 1 -i 42 -a 1 -x {0.0 1.0 42 ------- null}
- -t 2.15750000000001 -s 0 -d 1 -p cbr -e 210 -c 1 -i 42 -a 1 -x {0.0 1.0 42 ------- null}
h -t 2.15750000000001 -s 0 -d 1 -p cbr -e 210 -c 1 -i 42 -a 1 -x {0.0 1.0 -1 ------- null}
r -t 2.16084000000001 -s 0 -d 1 -p cbr -e 210 -c 1 -i 40 -a 1 -x {0.0 1.0 40 ------- null}
+ -t 2.16125000000001 -s 0 -d 1 -p cbr -e 210 -c 1 -i 43 -a 1 -x {0.0 1.0 43 ------- null}
- -t 2.16125000000001 -s 0 -d 1 -p cbr -e 210 -c 1 -i 43 -a 1 -x {0.0 1.0 43 ------- null}
h -t 2.16125000000001 -s 0 -d 1 -p cbr -e 210 -c 1 -i 43 -a 1 -x {0.0 1.0 -1 ------- null}
r -t 2.16459000000001 -s 0 -d 1 -p cbr -e 210 -c 1 -i 41 -a 1 -x {0.0 1.0 41 ------- null}
+ -t 2.16500000000001 -s 0 -d 1 -p cbr -e 210 -c 1 -i 44 -a 1 -x {0.0 1.0 44 ------- null}
- -t 2.16500000000001 -s 0 -d 1 -p cbr -e 210 -c 1 -i 44 -a 1 -x {0.0 1.0 44 ------- null}
h -t 2.16500000000001 -s 0 -d 1 -p cbr -e 210 -c 1 -i 44 -a 1 -x {0.0 1.0 -1 ------- null}
r -t 2.16834000000001 -s 0 -d 1 -p cbr -e 210 -c 1 -i 42 -a 1 -x {0.0 1.0 42 ------- null}
+ -t 2.16875000000001 -s 0 -d 1 -p cbr -e 210 -c 1 -i 45 -a 1 -x {0.0 1.0 45 ------- null}
- -t 2.16875000000001 -s 0 -d 1 -p cbr -e 210 -c 1 -i 45 -a 1 -x {0.0 1.0 45 ------- null}
h -t 2.16875000000001 -s 0 -d 1 -p cbr -e 210 -c 1 -i 45 -a 1 -x {0.0 1.0 -1 ------- null}
r -t 2.17209000000001 -s 0 -d 1 -p cbr -e 210 -c 1 -i 43 -a 1 -x {0.0 1.0 43 ------- null}
+ -t 2.17250000000001 -s 0 -d 1 -p cbr -e 210 -c 1 -i 46 -a 1 -x {0.0 1.0 46 ------- null}
- -t 2.17250000000001 -s 0 -d 1 -p cbr -e 210 -c 1 -i 46 -a 1 -x {0.0 1.0 46 ------- null}
h -t 2.17250000000001 -s 0 -d 1 -p cbr -e 210 -c 1 -i 46 -a 1 -x {0.0 1.0 -1 ------- null}
r -t 2.17584000000001 -s 0 -d 1 -p cbr -e 210 -c 1 -i 44 -a 1 -x {0.0 1.0 44 ------- null}
+ -t 2.17625000000001 -s 0 -d 1 -p cbr -e 210 -c 1 -i 47 -a 1 -x {0.0 1.0 47 ------- null}
- -t 2.17625000000001 -s 0 -d 1 -p cbr -e 210 -c 1 -i 47 -a 1 -x {0.0 1.0 47 ------- null}
h -t 2.17625000000001 -s 0 -d 1 -p cbr -e 210 -c 1 -i 47 -a 1 -x {0.0 1.0 -1 ------- null}
r -t 2.17959000000001 -s 0 -d 1 -p cbr -e 210 -c 1 -i 45 -a 1 -x {0.0 1.0 45 ------- null}
+ -t 2.18000000000001 -s 0 -d 1 -p cbr -e 210 -c 1 -i 48 -a 1 -x {0.0 1.0 48 ------- null}
- -t 2.18000000000001 -s 0 -d 1 -p cbr -e 210 -c 1 -i 48 -a 1 -x {0.0 1.0 48 ------- null}
h -t 2.18000000000001 -s 0 -d 1 -p cbr -e 210 -c 1 -i 48 -a 1 -x {0.0 1.0 -1 ------- null}
r -t 2.18334000000001 -s 0 -d 1 -p cbr -e 210 -c 1 -i 46 -a 1 -x {0.0 1.0 46 ------- null}
+ -t 2.18375000000001 -s 0 -d 1 -p cbr -e 210 -c 1 -i 49 -a 1 -x {0.0 1.0 49 ------- null}
- -t 2.18375000000001 -s 0 -d 1 -p cbr -e 210 -c 1 -i 49 -a 1 -x {0.0 1.0 49 ------- null}
h -t 2.18375000000001 -s 0 -d 1 -p cbr -e 210 -c 1 -i 49 -a 1 -x {0.0 1.0 -1 ------- null}
r -t 2.18709000000001 -s 0 -d 1 -p cbr -e 210 -c 1 -i 47 -a 1 -x {0.0 1.0 47 ------- null}
+ -t 2.18750000000001 -s 0 -d 1 -p cbr -e 210 -c 1 -i 50 -a 1 -x {0.0 1.0 50 ------- null}
- -t 2.18750000000001 -s 0 -d 1 -p cbr -e 210 -c 1 -i 50 -a 1 -x {0.0 1.0 50 ------- null}
h -t 2.18750000000001 -s 0 -d 1 -p cbr -e 210 -c 1 -i 50 -a 1 -x {0.0 1.0 -1 ------- null}
r -t 2.19084000000001 -s 0 -d 1 -p cbr -e 210 -c 1 -i 48 -a 1 -x {0.0 1.0 48 ------- null}
+ -t 2.19125000000001 -s 0 -d 1 -p cbr -e 210 -c 1 -i 51 -a 1 -x {0.0 1.0 51 ------- null}
- -t 2.19125000000001 -s 0 -d 1 -p cbr -e 210 -c 1 -i 51 -a 1 -x {0.0 1.0 51 ------- null}
h -t 2.19125000000001 -s 0 -d 1 -p cbr -e 210 -c 1 -i 51 -a 1 -x {0.0 1.0 -1 ------- null}
r -t 2.19459000000001 -s 0 -d 1 -p cbr -e 210 -c 1 -i 49 -a 1 -x {0.0 1.0 49 ------- null}
+ -t 2.19500000000001 -s 0 -d 1 -p cbr -e 210 -c 1 -i 52 -a 1 -x {0.0 1.0 52 ------- null}
- -t 2.19500000000001 -s 0 -d 1 -p cbr -e 210 -c 1 -i 52 -a 1 -x {0.0 1.0 52 ------- null}
h -t 2.19500000000001 -s 0 -d 1 -p cbr -e 210 -c 1 -i 52 -a 1 -x {0.0 1.0 -1 ------- null}
r -t 2.19834000000001 -s 0 -d 1 -p cbr -e 210 -c 1 -i 50 -a 1 -x {0.0 1.0 50 ------- null}
+ -t 2.19875000000001 -s 0 -d 1 -p cbr -e 210 -c 1 -i 53 -a 1 -x {0.0 1.0 53 ------- null}
- -t 2.19875000000001 -s 0 -d 1 -p cbr -e 210 -c 1 -i 53 -a 1 -x {0.0 1.0 53 ------- null}
h -t 2.19875000000001 -s 0 -d 1 -p cbr -e 210 -c 1 -i 53 -a 1 -x {0.0 1.0 -1 ------- null}
r -t 2.20209000000001 -s 0 -d 1 -p cbr -e 210 -c 1 -i 51 -a 1 -x {0.0 1.0 51 ------- null}
+ -t 2.20250000000001 -s 0 -d 1 -p cbr -e 210 -c 1 -i 54 -a 1 -x {0.0 1.0 54 ------- null}
- -t 2.20250000000001 -s 0 -d 1 -p cbr -e 210 -c 1 -i 54 -a 1 -x {0.0 1.0 54 ------- null}
h -t 2.20250000000001 -s 0 -d 1 -p cbr -e 210 -c 1 -i 54 -a 1 -x {0.0 1.0 -1 ------- null}
r -t 2.20584000000001 -s 0 -d 1 -p cbr -e 210 -c 1 -i 52 -a 1 -x {0.0 1.0 52 ------- null}
+ -t 2.20625000000001 -s 0 -d 1 -p cbr -e 210 -c 1 -i 55 -a 1 -x {0.0 1.0 55 ------- null}
- -t 2.20625000000001 -s 0 -d 1 -p cbr -e 210 -c 1 -i 55 -a 1 -x {0.0 1.0 55 ------- null}
h -t 2.20625000000001 -s 0 -d 1 -p cbr -e 210 -c 1 -i 55 -a 1 -x {0.0 1.0 -1 ------- null}
r -t 2.20959000000001 -s 0 -d 1 -p cbr -e 210 -c 1 -i 53 -a 1 -x {0.0 1.0 53 ------- null}
+ -t 2.21000000000001 -s 0 -d 1 -p cbr -e 210 -c 1 -i 56 -a 1 -x {0.0 1.0 56 ------- null}
- -t 2.21000000000001 -s 0 -d 1 -p cbr -e 210 -c 1 -i 56 -a 1 -x {0.0 1.0 56 ------- null}
h -t 2.21000000000001 -s 0 -d 1 -p cbr -e 210 -c 1 -i 56 -a 1 -x {0.0 1.0 -1 ------- null}
r -t 2.21334000000001 -s 0 -d 1 -p cbr -e 210 -c 1 -i 54 -a 1 -x {0.0 1.0 54 ------- null}
+ -t 2.21375000000001 -s 0 -d 1 -p cbr -e 210 -c 1 -i 57 -a 1 -x {0.0 1.0 57 ------- null}
- -t 2.21375000000001 -s 0 -d 1 -p cbr -e 210 -c 1 -i 57 -a 1 -x {0.0 1.0 57 ------- null}
h -t 2.21375000000001 -s 0 -d 1 -p cbr -e 210 -c 1 -i 57 -a 1 -x {0.0 1.0 -1 ------- null}
r -t 2.21709000000001 -s 0 -d 1 -p cbr -e 210 -c 1 -i 55 -a 1 -x {0.0 1.0 55 ------- null}
+ -t 2.21750000000001 -s 0 -d 1 -p cbr -e 210 -c 1 -i 58 -a 1 -x {0.0 1.0 58 ------- null}
- -t 2.21750000000001 -s 0 -d 1 -p cbr -e 210 -c 1 -i 58 -a 1 -x {0.0 1.0 58 ------- null}
h -t 2.21750000000001 -s 0 -d 1 -p cbr -e 210 -c 1 -i 58 -a 1 -x {0.0 1.0 -1 ------- null}
r -t 2.22084000000001 -s 0 -d 1 -p cbr -e 210 -c 1 -i 56 -a 1 -x {0.0 1.0 56 ------- null}
+ -t 2.22125000000001 -s 0 -d 1 -p cbr -e 210 -c 1 -i 59 -a 1 -x {0.0 1.0 59 ------- null}
- -t 2.22125000000001 -s 0 -d 1 -p cbr -e 210 -c 1 -i 59 -a 1 -x {0.0 1.0 59 ------- null}
h -t 2.22125000000001 -s 0 -d 1 -p cbr -e 210 -c 1 -i 59 -a 1 -x {0.0 1.0 -1 ------- null}
r -t 2.22459000000001 -s 0 -d 1 -p cbr -e 210 -c 1 -i 57 -a 1 -x {0.0 1.0 57 ------- null}
+ -t 2.22500000000001 -s 0 -d 1 -p cbr -e 210 -c 1 -i 60 -a 1 -x {0.0 1.0 60 ------- null}
- -t 2.22500000000001 -s 0 -d 1 -p cbr -e 210 -c 1 -i 60 -a 1 -x {0.0 1.0 60 ------- null}
h -t 2.22500000000001 -s 0 -d 1 -p cbr -e 210 -c 1 -i 60 -a 1 -x {0.0 1.0 -1 ------- null}
r -t 2.22834000000001 -s 0 -d 1 -p cbr -e 210 -c 1 -i 58 -a 1 -x {0.0 1.0 58 ------- null}
+ -t 2.22875000000001 -s 0 -d 1 -p cbr -e 210 -c 1 -i 61 -a 1 -x {0.0 1.0 61 ------- null}
- -t 2.22875000000001 -s 0 -d 1 -p cbr -e 210 -c 1 -i 61 -a 1 -x {0.0 1.0 61 ------- null}
h -t 2.22875000000001 -s 0 -d 1 -p cbr -e 210 -c 1 -i 61 -a 1 -x {0.0 1.0 -1 ------- null}
r -t 2.23209000000001 -s 0 -d 1 -p cbr -e 210 -c 1 -i 59 -a 1 -x {0.0 1.0 59 ------- null}
+ -t 2.23250000000001 -s 0 -d 1 -p cbr -e 210 -c 1 -i 62 -a 1 -x {0.0 1.0 62 ------- null}
- -t 2.23250000000001 -s 0 -d 1 -p cbr -e 210 -c 1 -i 62 -a 1 -x {0.0 1.0 62 ------- null}
h -t 2.23250000000001 -s 0 -d 1 -p cbr -e 210 -c 1 -i 62 -a 1 -x {0.0 1.0 -1 ------- null}
r -t 2.23584000000001 -s 0 -d 1 -p cbr -e 210 -c 1 -i 60 -a 1 -x {0.0 1.0 60 ------- null}
+ -t 2.23625000000001 -s 0 -d 1 -p cbr -e 210 -c 1 -i 63 -a 1 -x {0.0 1.0 63 ------- null}
- -t 2.23625000000001 -s 0 -d 1 -p cbr -e 210 -c 1 -i 63 -a 1 -x {0.0 1.0 63 ------- null}
h -t 2.23625000000001 -s 0 -d 1 -p cbr -e 210 -c 1 -i 63 -a 1 -x {0.0 1.0 -1 ------- null}
r -t 2.23959000000001 -s 0 -d 1 -p cbr -e 210 -c 1 -i 61 -a 1 -x {0.0 1.0 61 ------- null}
+ -t 2.24000000000001 -s 0 -d 1 -p cbr -e 210 -c 1 -i 64 -a 1 -x {0.0 1.0 64 ------- null}
- -t 2.24000000000001 -s 0 -d 1 -p cbr -e 210 -c 1 -i 64 -a 1 -x {0.0 1.0 64 ------- null}
h -t 2.24000000000001 -s 0 -d 1 -p cbr -e 210 -c 1 -i 64 -a 1 -x {0.0 1.0 -1 ------- null}
r -t 2.24334000000001 -s 0 -d 1 -p cbr -e 210 -c 1 -i 62 -a 1 -x {0.0 1.0 62 ------- null}
+ -t 2.24375000000001 -s 0 -d 1 -p cbr -e 210 -c 1 -i 65 -a 1 -x {0.0 1.0 65 ------- null}
- -t 2.24375000000001 -s 0 -d 1 -p cbr -e 210 -c 1 -i 65 -a 1 -x {0.0 1.0 65 ------- null}
h -t 2.24375000000001 -s 0 -d 1 -p cbr -e 210 -c 1 -i 65 -a 1 -x {0.0 1.0 -1 ------- null}
r -t 2.24709000000001 -s 0 -d 1 -p cbr -e 210 -c 1 -i 63 -a 1 -x {0.0 1.0 63 ------- null}
+ -t 2.24750000000001 -s 0 -d 1 -p cbr -e 210 -c 1 -i 66 -a 1 -x {0.0 1.0 66 ------- null}
- -t 2.24750000000001 -s 0 -d 1 -p cbr -e 210 -c 1 -i 66 -a 1 -x {0.0 1.0 66 ------- null}
h -t 2.24750000000001 -s 0 -d 1 -p cbr -e 210 -c 1 -i 66 -a 1 -x {0.0 1.0 -1 ------- null}
r -t 2.25084000000001 -s 0 -d 1 -p cbr -e 210 -c 1 -i 64 -a 1 -x {0.0 1.0 64 ------- null}
+ -t 2.25125000000001 -s 0 -d 1 -p cbr -e 210 -c 1 -i 67 -a 1 -x {0.0 1.0 67 ------- null}
- -t 2.25125000000001 -s 0 -d 1 -p cbr -e 210 -c 1 -i 67 -a 1 -x {0.0 1.0 67 ------- null}
h -t 2.25125000000001 -s 0 -d 1 -p cbr -e 210 -c 1 -i 67 -a 1 -x {0.0 1.0 -1 ------- null}
r -t 2.25459000000001 -s 0 -d 1 -p cbr -e 210 -c 1 -i 65 -a 1 -x {0.0 1.0 65 ------- null}
+ -t 2.25500000000001 -s 0 -d 1 -p cbr -e 210 -c 1 -i 68 -a 1 -x {0.0 1.0 68 ------- null}
- -t 2.25500000000001 -s 0 -d 1 -p cbr -e 210 -c 1 -i 68 -a 1 -x {0.0 1.0 68 ------- null}
h -t 2.25500000000001 -s 0 -d 1 -p cbr -e 210 -c 1 -i 68 -a 1 -x {0.0 1.0 -1 ------- null}
r -t 2.25834000000001 -s 0 -d 1 -p cbr -e 210 -c 1 -i 66 -a 1 -x {0.0 1.0 66 ------- null}
+ -t 2.25875000000001 -s 0 -d 1 -p cbr -e 210 -c 1 -i 69 -a 1 -x {0.0 1.0 69 ------- null}
- -t 2.25875000000001 -s 0 -d 1 -p cbr -e 210 -c 1 -i 69 -a 1 -x {0.0 1.0 69 ------- null}
h -t 2.25875000000001 -s 0 -d 1 -p cbr -e 210 -c 1 -i 69 -a 1 -x {0.0 1.0 -1 ------- null}
r -t 2.26209000000001 -s 0 -d 1 -p cbr -e 210 -c 1 -i 67 -a 1 -x {0.0 1.0 67 ------- null}
+ -t 2.26250000000001 -s 0 -d 1 -p cbr -e 210 -c 1 -i 70 -a 1 -x {0.0 1.0 70 ------- null}
- -t 2.26250000000001 -s 0 -d 1 -p cbr -e 210 -c 1 -i 70 -a 1 -x {0.0 1.0 70 ------- null}
h -t 2.26250000000001 -s 0 -d 1 -p cbr -e 210 -c 1 -i 70 -a 1 -x {0.0 1.0 -1 ------- null}
r -t 2.26584000000001 -s 0 -d 1 -p cbr -e 210 -c 1 -i 68 -a 1 -x {0.0 1.0 68 ------- null}
+ -t 2.26625000000001 -s 0 -d 1 -p cbr -e 210 -c 1 -i 71 -a 1 -x {0.0 1.0 71 ------- null}
- -t 2.26625000000001 -s 0 -d 1 -p cbr -e 210 -c 1 -i 71 -a 1 -x {0.0 1.0 71 ------- null}
h -t 2.26625000000001 -s 0 -d 1 -p cbr -e 210 -c 1 -i 71 -a 1 -x {0.0 1.0 -1 ------- null}
r -t 2.26959000000001 -s 0 -d 1 -p cbr -e 210 -c 1 -i 69 -a 1 -x {0.0 1.0 69 ------- null}
+ -t 2.27000000000001 -s 0 -d 1 -p cbr -e 210 -c 1 -i 72 -a 1 -x {0.0 1.0 72 ------- null}
- -t 2.27000000000001 -s 0 -d 1 -p cbr -e 210 -c 1 -i 72 -a 1 -x {0.0 1.0 72 ------- null}
h -t 2.27000000000001 -s 0 -d 1 -p cbr -e 210 -c 1 -i 72 -a 1 -x {0.0 1.0 -1 ------- null}
r -t 2.27334000000001 -s 0 -d 1 -p cbr -e 210 -c 1 -i 70 -a 1 -x {0.0 1.0 70 ------- null}
+ -t 2.27375000000001 -s 0 -d 1 -p cbr -e 210 -c 1 -i 73 -a 1 -x {0.0 1.0 73 ------- null}
- -t 2.27375000000001 -s 0 -d 1 -p cbr -e 210 -c 1 -i 73 -a 1 -x {0.0 1.0 73 ------- null}
h -t 2.27375000000001 -s 0 -d 1 -p cbr -e 210 -c 1 -i 73 -a 1 -x {0.0 1.0 -1 ------- null}
r -t 2.27709000000001 -s 0 -d 1 -p cbr -e 210 -c 1 -i 71 -a 1 -x {0.0 1.0 71 ------- null}
+ -t 2.27750000000001 -s 0 -d 1 -p cbr -e 210 -c 1 -i 74 -a 1 -x {0.0 1.0 74 ------- null}
- -t 2.27750000000001 -s 0 -d 1 -p cbr -e 210 -c 1 -i 74 -a 1 -x {0.0 1.0 74 ------- null}
h -t 2.27750000000001 -s 0 -d 1 -p cbr -e 210 -c 1 -i 74 -a 1 -x {0.0 1.0 -1 ------- null}
r -t 2.28084000000001 -s 0 -d 1 -p cbr -e 210 -c 1 -i 72 -a 1 -x {0.0 1.0 72 ------- null}
+ -t 2.28125000000001 -s 0 -d 1 -p cbr -e 210 -c 1 -i 75 -a 1 -x {0.0 1.0 75 ------- null}
- -t 2.28125000000001 -s 0 -d 1 -p cbr -e 210 -c 1 -i 75 -a 1 -x {0.0 1.0 75 ------- null}
h -t 2.28125000000001 -s 0 -d 1 -p cbr -e 210 -c 1 -i 75 -a 1 -x {0.0 1.0 -1 ------- null}
r -t 2.28459000000001 -s 0 -d 1 -p cbr -e 210 -c 1 -i 73 -a 1 -x {0.0 1.0 73 ------- null}
+ -t 2.28500000000001 -s 0 -d 1 -p cbr -e 210 -c 1 -i 76 -a 1 -x {0.0 1.0 76 ------- null}
- -t 2.28500000000001 -s 0 -d 1 -p cbr -e 210 -c 1 -i 76 -a 1 -x {0.0 1.0 76 ------- null}
h -t 2.28500000000001 -s 0 -d 1 -p cbr -e 210 -c 1 -i 76 -a 1 -x {0.0 1.0 -1 ------- null}
r -t 2.28834000000001 -s 0 -d 1 -p cbr -e 210 -c 1 -i 74 -a 1 -x {0.0 1.0 74 ------- null}
+ -t 2.28875000000001 -s 0 -d 1 -p cbr -e 210 -c 1 -i 77 -a 1 -x {0.0 1.0 77 ------- null}
- -t 2.28875000000001 -s 0 -d 1 -p cbr -e 210 -c 1 -i 77 -a 1 -x {0.0 1.0 77 ------- null}
h -t 2.28875000000001 -s 0 -d 1 -p cbr -e 210 -c 1 -i 77 -a 1 -x {0.0 1.0 -1 ------- null}
r -t 2.29209000000001 -s 0 -d 1 -p cbr -e 210 -c 1 -i 75 -a 1 -x {0.0 1.0 75 ------- null}
+ -t 2.29250000000001 -s 0 -d 1 -p cbr -e 210 -c 1 -i 78 -a 1 -x {0.0 1.0 78 ------- null}
- -t 2.29250000000001 -s 0 -d 1 -p cbr -e 210 -c 1 -i 78 -a 1 -x {0.0 1.0 78 ------- null}
h -t 2.29250000000001 -s 0 -d 1 -p cbr -e 210 -c 1 -i 78 -a 1 -x {0.0 1.0 -1 ------- null}
r -t 2.29584000000001 -s 0 -d 1 -p cbr -e 210 -c 1 -i 76 -a 1 -x {0.0 1.0 76 ------- null}
+ -t 2.29625000000001 -s 0 -d 1 -p cbr -e 210 -c 1 -i 79 -a 1 -x {0.0 1.0 79 ------- null}
- -t 2.29625000000001 -s 0 -d 1 -p cbr -e 210 -c 1 -i 79 -a 1 -x {0.0 1.0 79 ------- null}
h -t 2.29625000000001 -s 0 -d 1 -p cbr -e 210 -c 1 -i 79 -a 1 -x {0.0 1.0 -1 ------- null}
r -t 2.29959000000001 -s 0 -d 1 -p cbr -e 210 -c 1 -i 77 -a 1 -x {0.0 1.0 77 ------- null}
+ -t 2.30000000000001 -s 0 -d 1 -p cbr -e 210 -c 1 -i 80 -a 1 -x {0.0 1.0 80 ------- null}
- -t 2.30000000000001 -s 0 -d 1 -p cbr -e 210 -c 1 -i 80 -a 1 -x {0.0 1.0 80 ------- null}
h -t 2.30000000000001 -s 0 -d 1 -p cbr -e 210 -c 1 -i 80 -a 1 -x {0.0 1.0 -1 ------- null}
r -t 2.30334000000001 -s 0 -d 1 -p cbr -e 210 -c 1 -i 78 -a 1 -x {0.0 1.0 78 ------- null}
+ -t 2.30375000000001 -s 0 -d 1 -p cbr -e 210 -c 1 -i 81 -a 1 -x {0.0 1.0 81 ------- null}
- -t 2.30375000000001 -s 0 -d 1 -p cbr -e 210 -c 1 -i 81 -a 1 -x {0.0 1.0 81 ------- null}
h -t 2.30375000000001 -s 0 -d 1 -p cbr -e 210 -c 1 -i 81 -a 1 -x {0.0 1.0 -1 ------- null}
r -t 2.30709000000001 -s 0 -d 1 -p cbr -e 210 -c 1 -i 79 -a 1 -x {0.0 1.0 79 ------- null}
+ -t 2.30750000000001 -s 0 -d 1 -p cbr -e 210 -c 1 -i 82 -a 1 -x {0.0 1.0 82 ------- null}
- -t 2.30750000000001 -s 0 -d 1 -p cbr -e 210 -c 1 -i 82 -a 1 -x {0.0 1.0 82 ------- null}
h -t 2.30750000000001 -s 0 -d 1 -p cbr -e 210 -c 1 -i 82 -a 1 -x {0.0 1.0 -1 ------- null}
r -t 2.31084000000001 -s 0 -d 1 -p cbr -e 210 -c 1 -i 80 -a 1 -x {0.0 1.0 80 ------- null}
+ -t 2.31125000000001 -s 0 -d 1 -p cbr -e 210 -c 1 -i 83 -a 1 -x {0.0 1.0 83 ------- null}
- -t 2.31125000000001 -s 0 -d 1 -p cbr -e 210 -c 1 -i 83 -a 1 -x {0.0 1.0 83 ------- null}
h -t 2.31125000000001 -s 0 -d 1 -p cbr -e 210 -c 1 -i 83 -a 1 -x {0.0 1.0 -1 ------- null}
r -t 2.31459000000001 -s 0 -d 1 -p cbr -e 210 -c 1 -i 81 -a 1 -x {0.0 1.0 81 ------- null}
+ -t 2.31500000000001 -s 0 -d 1 -p cbr -e 210 -c 1 -i 84 -a 1 -x {0.0 1.0 84 ------- null}
- -t 2.31500000000001 -s 0 -d 1 -p cbr -e 210 -c 1 -i 84 -a 1 -x {0.0 1.0 84 ------- null}
h -t 2.31500000000001 -s 0 -d 1 -p cbr -e 210 -c 1 -i 84 -a 1 -x {0.0 1.0 -1 ------- null}
r -t 2.31834000000001 -s 0 -d 1 -p cbr -e 210 -c 1 -i 82 -a 1 -x {0.0 1.0 82 ------- null}
+ -t 2.31875000000001 -s 0 -d 1 -p cbr -e 210 -c 1 -i 85 -a 1 -x {0.0 1.0 85 ------- null}
- -t 2.31875000000001 -s 0 -d 1 -p cbr -e 210 -c 1 -i 85 -a 1 -x {0.0 1.0 85 ------- null}
h -t 2.31875000000001 -s 0 -d 1 -p cbr -e 210 -c 1 -i 85 -a 1 -x {0.0 1.0 -1 ------- null}
r -t 2.32209000000001 -s 0 -d 1 -p cbr -e 210 -c 1 -i 83 -a 1 -x {0.0 1.0 83 ------- null}
+ -t 2.32250000000001 -s 0 -d 1 -p cbr -e 210 -c 1 -i 86 -a 1 -x {0.0 1.0 86 ------- null}