+ 2 0 1 cbr 210 ------- 1 0.0 1.0 0 0
- 2 0 1 cbr 210 ------- 1 0.0 1.0 0 0
+ 2.00375 0 1 cbr 210 ------- 1 0.0 1.0 1 1
- 2.00375 0 1 cbr 210 ------- 1 0.0 1.0 1 1
+ 2.0075 0 1 cbr 210 ------- 1 0.0 1.0 2 2
- 2.0075 0 1 cbr 210 ------- 1 0.0 1.0 2 2
r 2.01084 0 1 cbr 210 ------- 1 0.0 1.0 0 0
+ 2.01125 0 1 cbr 210 ------- 1 0.0 1.0 3 3
- 2.01125 0 1 cbr 210 ------- 1 0.0 1.0 3 3
r 2.01459 0 1 cbr 210 ------- 1 0.0 1.0 1 1
+ 2.015 0 1 cbr 210 ------- 1 0.0 1.0 4 4
- 2.015 0 1 cbr 210 ------- 1 0.0 1.0 4 4
r 2.01834 0 1 cbr 210 ------- 1 0.0 1.0 2 2
+ 2.01875 0 1 cbr 210 ------- 1 0.0 1.0 5 5
- 2.01875 0 1 cbr 210 ------- 1 0.0 1.0 5 5
r 2.02209 0 1 cbr 210 ------- 1 0.0 1.0 3 3
+ 2.0225 0 1 cbr 210 ------- 1 0.0 1.0 6 6
- 2.0225 0 1 cbr 210 ------- 1 0.0 1.0 6 6
r 2.02584 0 1 cbr 210 ------- 1 0.0 1.0 4 4
+ 2.02625 0 1 cbr 210 ------- 1 0.0 1.0 7 7
- 2.02625 0 1 cbr 210 ------- 1 0.0 1.0 7 7
r 2.02959 0 1 cbr 210 ------- 1 0.0 1.0 5 5
+ 2.03 0 1 cbr 210 ------- 1 0.0 1.0 8 8
- 2.03 0 1 cbr 210 ------- 1 0.0 1.0 8 8
r 2.03334 0 1 cbr 210 ------- 1 0.0 1.0 6 6
+ 2.03375 0 1 cbr 210 ------- 1 0.0 1.0 9 9
- 2.03375 0 1 cbr 210 ------- 1 0.0 1.0 9 9
r 2.03709 0 1 cbr 210 ------- 1 0.0 1.0 7 7
+ 2.0375 0 1 cbr 210 ------- 1 0.0 1.0 10 10
- 2.0375 0 1 cbr 210 ------- 1 0.0 1.0 10 10
r 2.04084 0 1 cbr 210 ------- 1 0.0 1.0 8 8
+ 2.04125 0 1 cbr 210 ------- 1 0.0 1.0 11 11
- 2.04125 0 1 cbr 210 ------- 1 0.0 1.0 11 11
r 2.04459 0 1 cbr 210 ------- 1 0.0 1.0 9 9
+ 2.045 0 1 cbr 210 ------- 1 0.0 1.0 12 12
- 2.045 0 1 cbr 210 ------- 1 0.0 1.0 12 12
r 2.04834 0 1 cbr 210 ------- 1 0.0 1.0 10 10
+ 2.04875 0 1 cbr 210 ------- 1 0.0 1.0 13 13
- 2.04875 0 1 cbr 210 ------- 1 0.0 1.0 13 13
r 2.05209 0 1 cbr 210 ------- 1 0.0 1.0 11 11
+ 2.0525 0 1 cbr 210 ------- 1 0.0 1.0 14 14
- 2.0525 0 1 cbr 210 ------- 1 0.0 1.0 14 14
r 2.05584 0 1 cbr 210 ------- 1 0.0 1.0 12 12
+ 2.05625 0 1 cbr 210 ------- 1 0.0 1.0 15 15
- 2.05625 0 1 cbr 210 ------- 1 0.0 1.0 15 15
r 2.05959 0 1 cbr 210 ------- 1 0.0 1.0 13 13
+ 2.06 0 1 cbr 210 ------- 1 0.0 1.0 16 16
- 2.06 0 1 cbr 210 ------- 1 0.0 1.0 16 16
r 2.06334 0 1 cbr 210 ------- 1 0.0 1.0 14 14
+ 2.06375 0 1 cbr 210 ------- 1 0.0 1.0 17 17
- 2.06375 0 1 cbr 210 ------- 1 0.0 1.0 17 17
r 2.06709 0 1 cbr 210 ------- 1 0.0 1.0 15 15
+ 2.0675 0 1 cbr 210 ------- 1 0.0 1.0 18 18
- 2.0675 0 1 cbr 210 ------- 1 0.0 1.0 18 18
r 2.07084 0 1 cbr 210 ------- 1 0.0 1.0 16 16
+ 2.07125 0 1 cbr 210 ------- 1 0.0 1.0 19 19
- 2.07125 0 1 cbr 210 ------- 1 0.0 1.0 19 19
r 2.07459 0 1 cbr 210 ------- 1 0.0 1.0 17 17
+ 2.075 0 1 cbr 210 ------- 1 0.0 1.0 20 20
- 2.075 0 1 cbr 210 ------- 1 0.0 1.0 20 20
r 2.07834 0 1 cbr 210 ------- 1 0.0 1.0 18 18
+ 2.07875 0 1 cbr 210 ------- 1 0.0 1.0 21 21
- 2.07875 0 1 cbr 210 ------- 1 0.0 1.0 21 21
r 2.08209 0 1 cbr 210 ------- 1 0.0 1.0 19 19
+ 2.0825 0 1 cbr 210 ------- 1 0.0 1.0 22 22
- 2.0825 0 1 cbr 210 ------- 1 0.0 1.0 22 22
r 2.08584 0 1 cbr 210 ------- 1 0.0 1.0 20 20
+ 2.08625 0 1 cbr 210 ------- 1 0.0 1.0 23 23
- 2.08625 0 1 cbr 210 ------- 1 0.0 1.0 23 23
r 2.08959 0 1 cbr 210 ------- 1 0.0 1.0 21 21
+ 2.09 0 1 cbr 210 ------- 1 0.0 1.0 24 24
- 2.09 0 1 cbr 210 ------- 1 0.0 1.0 24 24
r 2.09334 0 1 cbr 210 ------- 1 0.0 1.0 22 22
+ 2.09375 0 1 cbr 210 ------- 1 0.0 1.0 25 25
- 2.09375 0 1 cbr 210 ------- 1 0.0 1.0 25 25
r 2.09709 0 1 cbr 210 ------- 1 0.0 1.0 23 23
+ 2.0975 0 1 cbr 210 ------- 1 0.0 1.0 26 26
- 2.0975 0 1 cbr 210 ------- 1 0.0 1.0 26 26
r 2.10084 0 1 cbr 210 ------- 1 0.0 1.0 24 24
+ 2.10125 0 1 cbr 210 ------- 1 0.0 1.0 27 27
- 2.10125 0 1 cbr 210 ------- 1 0.0 1.0 27 27
r 2.10459 0 1 cbr 210 ------- 1 0.0 1.0 25 25
+ 2.105 0 1 cbr 210 ------- 1 0.0 1.0 28 28
- 2.105 0 1 cbr 210 ------- 1 0.0 1.0 28 28
r 2.10834 0 1 cbr 210 ------- 1 0.0 1.0 26 26
+ 2.10875 0 1 cbr 210 ------- 1 0.0 1.0 29 29
- 2.10875 0 1 cbr 210 ------- 1 0.0 1.0 29 29
r 2.11209 0 1 cbr 210 ------- 1 0.0 1.0 27 27
+ 2.1125 0 1 cbr 210 ------- 1 0.0 1.0 30 30
- 2.1125 0 1 cbr 210 ------- 1 0.0 1.0 30 30
r 2.11584 0 1 cbr 210 ------- 1 0.0 1.0 28 28
+ 2.11625 0 1 cbr 210 ------- 1 0.0 1.0 31 31
- 2.11625 0 1 cbr 210 ------- 1 0.0 1.0 31 31
r 2.11959 0 1 cbr 210 ------- 1 0.0 1.0 29 29
+ 2.12 0 1 cbr 210 ------- 1 0.0 1.0 32 32
- 2.12 0 1 cbr 210 ------- 1 0.0 1.0 32 32
r 2.12334 0 1 cbr 210 ------- 1 0.0 1.0 30 30
+ 2.12375 0 1 cbr 210 ------- 1 0.0 1.0 33 33
- 2.12375 0 1 cbr 210 ------- 1 0.0 1.0 33 33
r 2.12709 0 1 cbr 210 ------- 1 0.0 1.0 31 31
+ 2.1275 0 1 cbr 210 ------- 1 0.0 1.0 34 34
- 2.1275 0 1 cbr 210 ------- 1 0.0 1.0 34 34
r 2.13084 0 1 cbr 210 ------- 1 0.0 1.0 32 32
+ 2.13125 0 1 cbr 210 ------- 1 0.0 1.0 35 35
- 2.13125 0 1 cbr 210 ------- 1 0.0 1.0 35 35
r 2.13459 0 1 cbr 210 ------- 1 0.0 1.0 33 33
+ 2.135 0 1 cbr 210 ------- 1 0.0 1.0 36 36
- 2.135 0 1 cbr 210 ------- 1 0.0 1.0 36 36
r 2.13834 0 1 cbr 210 ------- 1 0.0 1.0 34 34
+ 2.13875 0 1 cbr 210 ------- 1 0.0 1.0 37 37
- 2.13875 0 1 cbr 210 ------- 1 0.0 1.0 37 37
r 2.14209 0 1 cbr 210 ------- 1 0.0 1.0 35 35
+ 2.1425 0 1 cbr 210 ------- 1 0.0 1.0 38 38
- 2.1425 0 1 cbr 210 ------- 1 0.0 1.0 38 38
r 2.14584 0 1 cbr 210 ------- 1 0.0 1.0 36 36
+ 2.14625 0 1 cbr 210 ------- 1 0.0 1.0 39 39
- 2.14625 0 1 cbr 210 ------- 1 0.0 1.0 39 39
r 2.14959 0 1 cbr 210 ------- 1 0.0 1.0 37 37
+ 2.15 0 1 cbr 210 ------- 1 0.0 1.0 40 40
- 2.15 0 1 cbr 210 ------- 1 0.0 1.0 40 40
r 2.15334 0 1 cbr 210 ------- 1 0.0 1.0 38 38
+ 2.15375 0 1 cbr 210 ------- 1 0.0 1.0 41 41
- 2.15375 0 1 cbr 210 ------- 1 0.0 1.0 41 41
r 2.15709 0 1 cbr 210 ------- 1 0.0 1.0 39 39
+ 2.1575 0 1 cbr 210 ------- 1 0.0 1.0 42 42
- 2.1575 0 1 cbr 210 ------- 1 0.0 1.0 42 42
r 2.16084 0 1 cbr 210 ------- 1 0.0 1.0 40 40
+ 2.16125 0 1 cbr 210 ------- 1 0.0 1.0 43 43
- 2.16125 0 1 cbr 210 ------- 1 0.0 1.0 43 43
r 2.16459 0 1 cbr 210 ------- 1 0.0 1.0 41 41
+ 2.165 0 1 cbr 210 ------- 1 0.0 1.0 44 44
- 2.165 0 1 cbr 210 ------- 1 0.0 1.0 44 44
r 2.16834 0 1 cbr 210 ------- 1 0.0 1.0 42 42
+ 2.16875 0 1 cbr 210 ------- 1 0.0 1.0 45 45
- 2.16875 0 1 cbr 210 ------- 1 0.0 1.0 45 45
r 2.17209 0 1 cbr 210 ------- 1 0.0 1.0 43 43
+ 2.1725 0 1 cbr 210 ------- 1 0.0 1.0 46 46
- 2.1725 0 1 cbr 210 ------- 1 0.0 1.0 46 46
r 2.17584 0 1 cbr 210 ------- 1 0.0 1.0 44 44
+ 2.17625 0 1 cbr 210 ------- 1 0.0 1.0 47 47
- 2.17625 0 1 cbr 210 ------- 1 0.0 1.0 47 47
r 2.17959 0 1 cbr 210 ------- 1 0.0 1.0 45 45
+ 2.18 0 1 cbr 210 ------- 1 0.0 1.0 48 48
- 2.18 0 1 cbr 210 ------- 1 0.0 1.0 48 48
r 2.18334 0 1 cbr 210 ------- 1 0.0 1.0 46 46
+ 2.18375 0 1 cbr 210 ------- 1 0.0 1.0 49 49
- 2.18375 0 1 cbr 210 ------- 1 0.0 1.0 49 49
r 2.18709 0 1 cbr 210 ------- 1 0.0 1.0 47 47
+ 2.1875 0 1 cbr 210 ------- 1 0.0 1.0 50 50
- 2.1875 0 1 cbr 210 ------- 1 0.0 1.0 50 50
r 2.19084 0 1 cbr 210 ------- 1 0.0 1.0 48 48
+ 2.19125 0 1 cbr 210 ------- 1 0.0 1.0 51 51
- 2.19125 0 1 cbr 210 ------- 1 0.0 1.0 51 51
r 2.19459 0 1 cbr 210 ------- 1 0.0 1.0 49 49
+ 2.195 0 1 cbr 210 ------- 1 0.0 1.0 52 52
- 2.195 0 1 cbr 210 ------- 1 0.0 1.0 52 52
r 2.19834 0 1 cbr 210 ------- 1 0.0 1.0 50 50
+ 2.19875 0 1 cbr 210 ------- 1 0.0 1.0 53 53
- 2.19875 0 1 cbr 210 ------- 1 0.0 1.0 53 53
r 2.20209 0 1 cbr 210 ------- 1 0.0 1.0 51 51
+ 2.2025 0 1 cbr 210 ------- 1 0.0 1.0 54 54
- 2.2025 0 1 cbr 210 ------- 1 0.0 1.0 54 54
r 2.20584 0 1 cbr 210 ------- 1 0.0 1.0 52 52
+ 2.20625 0 1 cbr 210 ------- 1 0.0 1.0 55 55
- 2.20625 0 1 cbr 210 ------- 1 0.0 1.0 55 55
r 2.20959 0 1 cbr 210 ------- 1 0.0 1.0 53 53
+ 2.21 0 1 cbr 210 ------- 1 0.0 1.0 56 56
- 2.21 0 1 cbr 210 ------- 1 0.0 1.0 56 56
r 2.21334 0 1 cbr 210 ------- 1 0.0 1.0 54 54
+ 2.21375 0 1 cbr 210 ------- 1 0.0 1.0 57 57
- 2.21375 0 1 cbr 210 ------- 1 0.0 1.0 57 57
r 2.21709 0 1 cbr 210 ------- 1 0.0 1.0 55 55
+ 2.2175 0 1 cbr 210 ------- 1 0.0 1.0 58 58
- 2.2175 0 1 cbr 210 ------- 1 0.0 1.0 58 58
r 2.22084 0 1 cbr 210 ------- 1 0.0 1.0 56 56
+ 2.22125 0 1 cbr 210 ------- 1 0.0 1.0 59 59
- 2.22125 0 1 cbr 210 ------- 1 0.0 1.0 59 59
r 2.22459 0 1 cbr 210 ------- 1 0.0 1.0 57 57
+ 2.225 0 1 cbr 210 ------- 1 0.0 1.0 60 60
- 2.225 0 1 cbr 210 ------- 1 0.0 1.0 60 60
r 2.22834 0 1 cbr 210 ------- 1 0.0 1.0 58 58
+ 2.22875 0 1 cbr 210 ------- 1 0.0 1.0 61 61
- 2.22875 0 1 cbr 210 ------- 1 0.0 1.0 61 61
r 2.23209 0 1 cbr 210 ------- 1 0.0 1.0 59 59
+ 2.2325 0 1 cbr 210 ------- 1 0.0 1.0 62 62
- 2.2325 0 1 cbr 210 ------- 1 0.0 1.0 62 62
r 2.23584 0 1 cbr 210 ------- 1 0.0 1.0 60 60
+ 2.23625 0 1 cbr 210 ------- 1 0.0 1.0 63 63
- 2.23625 0 1 cbr 210 ------- 1 0.0 1.0 63 63
r 2.23959 0 1 cbr 210 ------- 1 0.0 1.0 61 61
+ 2.24 0 1 cbr 210 ------- 1 0.0 1.0 64 64
- 2.24 0 1 cbr 210 ------- 1 0.0 1.0 64 64
r 2.24334 0 1 cbr 210 ------- 1 0.0 1.0 62 62
+ 2.24375 0 1 cbr 210 ------- 1 0.0 1.0 65 65
- 2.24375 0 1 cbr 210 ------- 1 0.0 1.0 65 65
r 2.24709 0 1 cbr 210 ------- 1 0.0 1.0 63 63
+ 2.2475 0 1 cbr 210 ------- 1 0.0 1.0 66 66
- 2.2475 0 1 cbr 210 ------- 1 0.0 1.0 66 66
r 2.25084 0 1 cbr 210 ------- 1 0.0 1.0 64 64
+ 2.25125 0 1 cbr 210 ------- 1 0.0 1.0 67 67
- 2.25125 0 1 cbr 210 ------- 1 0.0 1.0 67 67
r 2.25459 0 1 cbr 210 ------- 1 0.0 1.0 65 65
+ 2.255 0 1 cbr 210 ------- 1 0.0 1.0 68 68
- 2.255 0 1 cbr 210 ------- 1 0.0 1.0 68 68
r 2.25834 0 1 cbr 210 ------- 1 0.0 1.0 66 66
+ 2.25875 0 1 cbr 210 ------- 1 0.0 1.0 69 69
- 2.25875 0 1 cbr 210 ------- 1 0.0 1.0 69 69
r 2.26209 0 1 cbr 210 ------- 1 0.0 1.0 67 67
+ 2.2625 0 1 cbr 210 ------- 1 0.0 1.0 70 70
- 2.2625 0 1 cbr 210 ------- 1 0.0 1.0 70 70
r 2.26584 0 1 cbr 210 ------- 1 0.0 1.0 68 68
+ 2.26625 0 1 cbr 210 ------- 1 0.0 1.0 71 71
- 2.26625 0 1 cbr 210 ------- 1 0.0 1.0 71 71
r 2.26959 0 1 cbr 210 ------- 1 0.0 1.0 69 69
+ 2.27 0 1 cbr 210 ------- 1 0.0 1.0 72 72
- 2.27 0 1 cbr 210 ------- 1 0.0 1.0 72 72
r 2.27334 0 1 cbr 210 ------- 1 0.0 1.0 70 70
+ 2.27375 0 1 cbr 210 ------- 1 0.0 1.0 73 73
- 2.27375 0 1 cbr 210 ------- 1 0.0 1.0 73 73
r 2.27709 0 1 cbr 210 ------- 1 0.0 1.0 71 71
+ 2.2775 0 1 cbr 210 ------- 1 0.0 1.0 74 74
- 2.2775 0 1 cbr 210 ------- 1 0.0 1.0 74 74
r 2.28084 0 1 cbr 210 ------- 1 0.0 1.0 72 72
+ 2.28125 0 1 cbr 210 ------- 1 0.0 1.0 75 75
- 2.28125 0 1 cbr 210 ------- 1 0.0 1.0 75 75
r 2.28459 0 1 cbr 210 ------- 1 0.0 1.0 73 73
+ 2.285 0 1 cbr 210 ------- 1 0.0 1.0 76 76
- 2.285 0 1 cbr 210 ------- 1 0.0 1.0 76 76
r 2.28834 0 1 cbr 210 ------- 1 0.0 1.0 74 74
+ 2.28875 0 1 cbr 210 ------- 1 0.0 1.0 77 77
- 2.28875 0 1 cbr 210 ------- 1 0.0 1.0 77 77
r 2.29209 0 1 cbr 210 ------- 1 0.0 1.0 75 75
+ 2.2925 0 1 cbr 210 ------- 1 0.0 1.0 78 78
- 2.2925 0 1 cbr 210 ------- 1 0.0 1.0 78 78
r 2.29584 0 1 cbr 210 ------- 1 0.0 1.0 76 76
+ 2.29625 0 1 cbr 210 ------- 1 0.0 1.0 79 79
- 2.29625 0 1 cbr 210 ------- 1 0.0 1.0 79 79
r 2.29959 0 1 cbr 210 ------- 1 0.0 1.0 77 77
+ 2.3 0 1 cbr 210 ------- 1 0.0 1.0 80 80
- 2.3 0 1 cbr 210 ------- 1 0.0 1.0 80 80
r 2.30334 0 1 cbr 210 ------- 1 0.0 1.0 78 78
+ 2.30375 0 1 cbr 210 ------- 1 0.0 1.0 81 81
- 2.30375 0 1 cbr 210 ------- 1 0.0 1.0 81 81
r 2.30709 0 1 cbr 210 ------- 1 0.0 1.0 79 79
+ 2.3075 0 1 cbr 210 ------- 1 0.0 1.0 82 82
- 2.3075 0 1 cbr 210 ------- 1 0.0 1.0 82 82
r 2.31084 0 1 cbr 210 ------- 1 0.0 1.0 80 80
+ 2.31125 0 1 cbr 210 ------- 1 0.0 1.0 83 83
- 2.31125 0 1 cbr 210 ------- 1 0.0 1.0 83 83
r 2.31459 0 1 cbr 210 ------- 1 0.0 1.0 81 81
+ 2.315 0 1 cbr 210 ------- 1 0.0 1.0 84 84
- 2.315 0 1 cbr 210 ------- 1 0.0 1.0 84 84
r 2.31834 0 1 cbr 210 ------- 1 0.0 1.0 82 82
+ 2.31875 0 1 cbr 210 ------- 1 0.0 1.0 85 85
- 2.31875 0 1 cbr 210 ------- 1 0.0 1.0 85 85
r 2.32209 0 1 cbr 210 ------- 1 0.0 1.0 83 83
+ 2.3225 0 1 cbr 210 ------- 1 0.0 1.0 86 86
- 2.3225 0 1 cbr 210 ------- 1 0.0 1.0 86 86
r 2.32584 0 1 cbr 210 ------- 1 0.0 1.0 84 84
+ 2.32625 0 1 cbr 210 ------- 1 0.0 1.0 87 87
- 2.32625 0 1 cbr 210 ------- 1 0.0 1.0 87 87
r 2.32959 0 1 cbr 210 ------- 1 0.0 1.0 85 85
+ 2.33 0 1 cbr 210 ------- 1 0.0 1.0 88 88
- 2.33 0 1 cbr 210 ------- 1 0.0 1.0 88 88
r 2.33334 0 1 cbr 210 ------- 1 0.0 1.0 86 86
+ 2.33375 0 1 cbr 210 ------- 1 0.0 1.0 89 89
- 2.33375 0 1 cbr 210 ------- 1 0.0 1.0 89 89
r 2.33709 0 1 cbr 210 ------- 1 0.0 1.0 87 87
+ 2.3375 0 1 cbr 210 ------- 1 0.0 1.0 90 90
- 2.3375 0 1 cbr 210 ------- 1 0.0 1.0 90 90
r 2.34084 0 1 cbr 210 ------- 1 0.0 1.0 88 88
+ 2.34125 0 1 cbr 210 ------- 1 0.0 1.0 91 91
- 2.34125 0 1 cbr 210 ------- 1 0.0 1.0 91 91
r 2.34459 0 1 cbr 210 ------- 1 0.0 1.0 89 89
+ 2.345 0 1 cbr 210 ------- 1 0.0 1.0 92 92
- 2.345 0 1 cbr 210 ------- 1 0.0 1.0 92 92
r 2.34834 0 1 cbr 210 ------- 1 0.0 1.0 90 90
+ 2.34875 0 1 cbr 210 ------- 1 0.0 1.0 93 93
- 2.34875 0 1 cbr 210 ------- 1 0.0 1.0 93 93
r 2.35209 0 1 cbr 210 ------- 1 0.0 1.0 91 91
+ 2.3525 0 1 cbr 210 ------- 1 0.0 1.0 94 94
- 2.3525 0 1 cbr 210 ------- 1 0.0 1.0 94 94
r 2.35584 0 1 cbr 210 ------- 1 0.0 1.0 92 92
+ 2.35625 0 1 cbr 210 ------- 1 0.0 1.0 95 95
- 2.35625 0 1 cbr 210 ------- 1 0.0 1.0 95 95
r 2.35959 0 1 cbr 210 ------- 1 0.0 1.0 93 93
+ 2.36 0 1 cbr 210 ------- 1 0.0 1.0 96 96
- 2.36 0 1 cbr 210 ------- 1 0.0 1.0 96 96
r 2.36334 0 1 cbr 210 ------- 1 0.0 1.0 94 94
+ 2.36375 0 1 cbr 210 ------- 1 0.0 1.0 97 97
- 2.36375 0 1 cbr 210 ------- 1 0.0 1.0 97 97
r 2.36709 0 1 cbr 210 ------- 1 0.0 1.0 95 95
+ 2.3675 0 1 cbr 210 ------- 1 0.0 1.0 98 98
- 2.3675 0 1 cbr 210 ------- 1 0.0 1.0 98 98
r 2.37084 0 1 cbr 210 ------- 1 0.0 1.0 96 96
+ 2.37125 0 1 cbr 210 ------- 1 0.0 1.0 99 99
- 2.37125 0 1 cbr 210 ------- 1 0.0 1.0 99 99
r 2.37459 0 1 cbr 210 ------- 1 0.0 1.0 97 97
+ 2.375 0 1 cbr 210 ------- 1 0.0 1.0 100 100
- 2.375 0 1 cbr 210 ------- 1 0.0 1.0 100 100
r 2.37834 0 1 cbr 210 ------- 1 0.0 1.0 98 98
+ 2.37875 0 1 cbr 210 ------- 1 0.0 1.0 101 101
- 2.37875 0 1 cbr 210 ------- 1 0.0 1.0 101 101
r 2.38209 0 1 cbr 210 ------- 1 0.0 1.0 99 99
+ 2.3825 0 1 cbr 210 ------- 1 0.0 1.0 102 102
- 2.3825 0 1 cbr 210 ------- 1 0.0 1.0 102 102
r 2.38584 0 1 cbr 210 ------- 1 0.0 1.0 100 100
+ 2.38625 0 1 cbr 210 ------- 1 0.0 1.0 103 103
- 2.38625 0 1 cbr 210 ------- 1 0.0 1.0 103 103
r 2.38959 0 1 cbr 210 ------- 1 0.0 1.0 101 101
+ 2.39 0 1 cbr 210 ------- 1 0.0 1.0 104 104
- 2.39 0 1 cbr 210 ------- 1 0.0 1.0 104 104
r 2.39334 0 1 cbr 210 ------- 1 0.0 1.0 102 102
+ 2.39375 0 1 cbr 210 ------- 1 0.0 1.0 105 105
- 2.39375 0 1 cbr 210 ------- 1 0.0 1.0 105 105
r 2.39709 0 1 cbr 210 ------- 1 0.0 1.0 103 103
+ 2.3975 0 1 cbr 210 ------- 1 0.0 1.0 106 106
- 2.3975 0 1 cbr 210 ------- 1 0.0 1.0 106 106
r 2.40084 0 1 cbr 210 ------- 1 0.0 1.0 104 104
+ 2.40125 0 1 cbr 210 ------- 1 0.0 1.0 107 107
- 2.40125 0 1 cbr 210 ------- 1 0.0 1.0 107 107
r 2.40459 0 1 cbr 210 ------- 1 0.0 1.0 105 105
+ 2.405 0 1 cbr 210 ------- 1 0.0 1.0 108 108
- 2.405 0 1 cbr 210 ------- 1 0.0 1.0 108 108
r 2.40834 0 1 cbr 210 ------- 1 0.0 1.0 106 106
+ 2.40875 0 1 cbr 210 ------- 1 0.0 1.0 109 109
- 2.40875 0 1 cbr 210 ------- 1 0.0 1.0 109 109
r 2.41209 0 1 cbr 210 ------- 1 0.0 1.0 107 107
+ 2.4125 0 1 cbr 210 ------- 1 0.0 1.0 110 110
- 2.4125 0 1 cbr 210 ------- 1 0.0 1.0 110 110
r 2.41584 0 1 cbr 210 ------- 1 0.0 1.0 108 108
+ 2.41625 0 1 cbr 210 ------- 1 0.0 1.0 111 111
- 2.41625 0 1 cbr 210 ------- 1 0.0 1.0 111 111
r 2.41959 0 1 cbr 210 ------- 1 0.0 1.0 109 109
+ 2.42 0 1 cbr 210 ------- 1 0.0 1.0 112 112
- 2.42 0 1 cbr 210 ------- 1 0.0 1.0 112 112
r 2.42334 0 1 cbr 210 ------- 1 0.0 1.0 110 110
+ 2.42375 0 1 cbr 210 ------- 1 0.0 1.0 113 113
- 2.42375 0 1 cbr 210 ------- 1 0.0 1.0 113 113
r 2.42709 0 1 cbr 210 ------- 1 0.0 1.0 111 111
+ 2.4275 0 1 cbr 210 ------- 1 0.0 1.0 114 114
- 2.4275 0 1 cbr 210 ------- 1 0.0 1.0 114 114
r 2.43084 0 1 cbr 210 ------- 1 0.0 1.0 112 112
+ 2.43125 0 1 cbr 210 ------- 1 0.0 1.0 115 115
- 2.43125 0 1 cbr 210 ------- 1 0.0 1.0 115 115
r 2.43459 0 1 cbr 210 ------- 1 0.0 1.0 113 113
+ 2.435 0 1 cbr 210 ------- 1 0.0 1.0 116 116
- 2.435 0 1 cbr 210 ------- 1 0.0 1.0 116 116
r 2.43834 0 1 cbr 210 ------- 1 0.0 1.0 114 114
+ 2.43875 0 1 cbr 210 ------- 1 0.0 1.0 117 117
- 2.43875 0 1 cbr 210 ------- 1 0.0 1.0 117 117
r 2.44209 0 1 cbr 210 ------- 1 0.0 1.0 115 115
+ 2.4425 0 1 cbr 210 ------- 1 0.0 1.0 118 118
- 2.4425 0 1 cbr 210 ------- 1 0.0 1.0 118 118
r 2.44584 0 1 cbr 210 ------- 1 0.0 1.0 116 116
+ 2.44625 0 1 cbr 210 ------- 1 0.0 1.0 119 119
- 2.44625 0 1 cbr 210 ------- 1 0.0 1.0 119 119
r 2.44959 0 1 cbr 210 ------- 1 0.0 1.0 117 117
+ 2.45 0 1 cbr 210 ------- 1 0.0 1.0 120 120
- 2.45 0 1 cbr 210 ------- 1 0.0 1.0 120 120
r 2.45334 0 1 cbr 210 ------- 1 0.0 1.0 118 118
+ 2.45375 0 1 cbr 210 ------- 1 0.0 1.0 121 121
- 2.45375 0 1 cbr 210 ------- 1 0.0 1.0 121 121
r 2.45709 0 1 cbr 210 ------- 1 0.0 1.0 119 119
+ 2.4575 0 1 cbr 210 ------- 1 0.0 1.0 122 122
- 2.4575 0 1 cbr 210 ------- 1 0.0 1.0 122 122
r 2.46084 0 1 cbr 210 ------- 1 0.0 1.0 120 120
+ 2.46125 0 1 cbr 210 ------- 1 0.0 1.0 123 123
- 2.46125 0 1 cbr 210 ------- 1 0.0 1.0 123 123
r 2.46459 0 1 cbr 210 ------- 1 0.0 1.0 121 121
+ 2.465 0 1 cbr 210 ------- 1 0.0 1.0 124 124
- 2.465 0 1 cbr 210 ------- 1 0.0 1.0 124 124
r 2.46834 0 1 cbr 210 ------- 1 0.0 1.0 122 122
+ 2.46875 0 1 cbr 210 ------- 1 0.0 1.0 125 125
- 2.46875 0 1 cbr 210 ------- 1 0.0 1.0 125 125
r 2.47209 0 1 cbr 210 ------- 1 0.0 1.0 123 123
+ 2.4725 0 1 cbr 210 ------- 1 0.0 1.0 126 126
- 2.4725 0 1 cbr 210 ------- 1 0.0 1.0 126 126
r 2.47584 0 1 cbr 210 ------- 1 0.0 1.0 124 124
+ 2.47625 0 1 cbr 210 ------- 1 0.0 1.0 127 127
- 2.47625 0 1 cbr 210 ------- 1 0.0 1.0 127 127
r 2.47959 0 1 cbr 210 ------- 1 0.0 1.0 125 125
+ 2.48 0 1 cbr 210 ------- 1 0.0 1.0 128 128
- 2.48 0 1 cbr 210 ------- 1 0.0 1.0 128 128
r 2.48334 0 1 cbr 210 ------- 1 0.0 1.0 126 126
+ 2.48375 0 1 cbr 210 ------- 1 0.0 1.0 129 129
- 2.48375 0 1 cbr 210 ------- 1 0.0 1.0 129 129
r 2.48709 0 1 cbr 210 ------- 1 0.0 1.0 127 127
+ 2.4875 0 1 cbr 210 ------- 1 0.0 1.0 130 130
- 2.4875 0 1 cbr 210 ------- 1 0.0 1.0 130 130
r 2.49084 0 1 cbr 210 ------- 1 0.0 1.0 128 128
+ 2.49125 0 1 cbr 210 ------- 1 0.0 1.0 131 131
- 2.49125 0 1 cbr 210 ------- 1 0.0 1.0 131 131
r 2.49459 0 1 cbr 210 ------- 1 0.0 1.0 129 129
+ 2.495 0 1 cbr 210 ------- 1 0.0 1.0 132 132
- 2.495 0 1 cbr 210 ------- 1 0.0 1.0 132 132
r 2.49834 0 1 cbr 210 ------- 1 0.0 1.0 130 130
+ 2.49875 0 1 cbr 210 ------- 1 0.0 1.0 133 133
- 2.49875 0 1 cbr 210 ------- 1 0.0 1.0 133 133
r 2.50209 0 1 cbr 210 ------- 1 0.0 1.0 131 131
+ 2.5025 0 1 cbr 210 ------- 1 0.0 1.0 134 134
- 2.5025 0 1 cbr 210 ------- 1 0.0 1.0 134 134
r 2.50584 0 1 cbr 210 ------- 1 0.0 1.0 132 132
+ 2.50625 0 1 cbr 210 ------- 1 0.0 1.0 135 135
- 2.50625 0 1 cbr 210 ------- 1 0.0 1.0 135 135
r 2.50959 0 1 cbr 210 ------- 1 0.0 1.0 133 133
+ 2.51 0 1 cbr 210 ------- 1 0.0 1.0 136 136
- 2.51 0 1 cbr 210 ------- 1 0.0 1.0 136 136
r 2.51334 0 1 cbr 210 ------- 1 0.0 1.0 134 134
+ 2.51375 0 1 cbr 210 ------- 1 0.0 1.0 137 137
- 2.51375 0 1 cbr 210 ------- 1 0.0 1.0 137 137
r 2.51709 0 1 cbr 210 ------- 1 0.0 1.0 135 135
+ 2.5175 0 1 cbr 210 ------- 1 0.0 1.0 138 138
- 2.5175 0 1 cbr 210 ------- 1 0.0 1.0 138 138
r 2.52084 0 1 cbr 210 ------- 1 0.0 1.0 136 136
+ 2.52125 0 1 cbr 210 ------- 1 0.0 1.0 139 139
- 2.52125 0 1 cbr 210 ------- 1 0.0 1.0 139 139
r 2.52459 0 1 cbr 210 ------- 1 0.0 1.0 137 137
+ 2.525 0 1 cbr 210 ------- 1 0.0 1.0 140 140
- 2.525 0 1 cbr 210 ------- 1 0.0 1.0 140 140
r 2.52834 0 1 cbr 210 ------- 1 0.0 1.0 138 138
+ 2.52875 0 1 cbr 210 ------- 1 0.0 1.0 141 141
- 2.52875 0 1 cbr 210 ------- 1 0.0 1.0 141 141
r 2.53209 0 1 cbr 210 ------- 1 0.0 1.0 139 139
+ 2.5325 0 1 cbr 210 ------- 1 0.0 1.0 142 142
- 2.5325 0 1 cbr 210 ------- 1 0.0 1.0 142 142
r 2.53584 0 1 cbr 210 ------- 1 0.0 1.0 140 140
+ 2.53625 0 1 cbr 210 ------- 1 0.0 1.0 143 143
- 2.53625 0 1 cbr 210 ------- 1 0.0 1.0 143 143
r 2.53959 0 1 cbr 210 ------- 1 0.0 1.0 141 141
+ 2.54 0 1 cbr 210 ------- 1 0.0 1.0 144 144
- 2.54 0 1 cbr 210 ------- 1 0.0 1.0 144 144
r 2.54334 0 1 cbr 210 ------- 1 0.0 1.0 142 142
+ 2.54375 0 1 cbr 210 ------- 1 0.0 1.0 145 145
- 2.54375 0 1 cbr 210 ------- 1 0.0 1.0 145 145
r 2.54709 0 1 cbr 210 ------- 1 0.0 1.0 143 143
+ 2.5475 0 1 cbr 210 ------- 1 0.0 1.0 146 146
- 2.5475 0 1 cbr 210 ------- 1 0.0 1.0 146 146
r 2.55084 0 1 cbr 210 ------- 1 0.0 1.0 144 144
+ 2.55125 0 1 cbr 210 ------- 1 0.0 1.0 147 147
- 2.55125 0 1 cbr 210 ------- 1 0.0 1.0 147 147
r 2.55459 0 1 cbr 210 ------- 1 0.0 1.0 145 145
+ 2.555 0 1 cbr 210 ------- 1 0.0 1.0 148 148
- 2.555 0 1 cbr 210 ------- 1 0.0 1.0 148 148
r 2.55834 0 1 cbr 210 ------- 1 0.0 1.0 146 146
+ 2.55875 0 1 cbr 210 ------- 1 0.0 1.0 149 149
- 2.55875 0 1 cbr 210 ------- 1 0.0 1.0 149 149
r 2.56209 0 1 cbr 210 ------- 1 0.0 1.0 147 147
+ 2.5625 0 1 cbr 210 ------- 1 0.0 1.0 150 150
- 2.5625 0 1 cbr 210 ------- 1 0.0 1.0 150 150
r 2.56584 0 1 cbr 210 ------- 1 0.0 1.0 148 148
+ 2.56625 0 1 cbr 210 ------- 1 0.0 1.0 151 151
- 2.56625 0 1 cbr 210 ------- 1 0.0 1.0 151 151
r 2.56959 0 1 cbr 210 ------- 1 0.0 1.0 149 149
+ 2.57 0 1 cbr 210 ------- 1 0.0 1.0 152 152
- 2.57 0 1 cbr 210 ------- 1 0.0 1.0 152 152
r 2.57334 0 1 cbr 210 ------- 1 0.0 1.0 150 150
+ 2.57375 0 1 cbr 210 ------- 1 0.0 1.0 153 153
- 2.57375 0 1 cbr 210 ------- 1 0.0 1.0 153 153
r 2.57709 0 1 cbr 210 ------- 1 0.0 1.0 151 151
+ 2.5775 0 1 cbr 210 ------- 1 0.0 1.0 154 154
- 2.5775 0 1 cbr 210 ------- 1 0.0 1.0 154 154
r 2.58084 0 1 cbr 210 ------- 1 0.0 1.0 152 152
+ 2.58125 0 1 cbr 210 ------- 1 0.0 1.0 155 155
- 2.58125 0 1 cbr 210 ------- 1 0.0 1.0 155 155
r 2.58459 0 1 cbr 210 ------- 1 0.0 1.0 153 153
+ 2.585 0 1 cbr 210 ------- 1 0.0 1.0 156 156
- 2.585 0 1 cbr 210 ------- 1 0.0 1.0 156 156
r 2.58834 0 1 cbr 210 ------- 1 0.0 1.0 154 154
+ 2.58875 0 1 cbr 210 ------- 1 0.0 1.0 157 157
- 2.58875 0 1 cbr 210 ------- 1 0.0 1.0 157 157
r 2.59209 0 1 cbr 210 ------- 1 0.0 1.0 155 155
+ 2.5925 0 1 cbr 210 ------- 1 0.0 1.0 158 158
- 2.5925 0 1 cbr 210 ------- 1 0.0 1.0 158 158
r 2.59584 0 1 cbr 210 ------- 1 0.0 1.0 156 156
+ 2.59625 0 1 cbr 210 ------- 1 0.0 1.0 159 159
- 2.59625 0 1 cbr 210 ------- 1 0.0 1.0 159 159
r 2.59959 0 1 cbr 210 ------- 1 0.0 1.0 157 157
+ 2.6 0 1 cbr 210 ------- 1 0.0 1.0 160 160
- 2.6 0 1 cbr 210 ------- 1 0.0 1.0 160 160
r 2.60334 0 1 cbr 210 ------- 1 0.0 1.0 158 158
+ 2.60375 0 1 cbr 210 ------- 1 0.0 1.0 161 161
- 2.60375 0 1 cbr 210 ------- 1 0.0 1.0 161 161
r 2.60709 0 1 cbr 210 ------- 1 0.0 1.0 159 159
+ 2.6075 0 1 cbr 210 ------- 1 0.0 1.0 162 162
- 2.6075 0 1 cbr 210 ------- 1 0.0 1.0 162 162
r 2.61084 0 1 cbr 210 ------- 1 0.0 1.0 160 160
+ 2.61125 0 1 cbr 210 ------- 1 0.0 1.0 163 163
- 2.61125 0 1 cbr 210 ------- 1 0.0 1.0 163 163
r 2.61459 0 1 cbr 210 ------- 1 0.0 1.0 161 161
+ 2.615 0 1 cbr 210 ------- 1 0.0 1.0 164 164
- 2.615 0 1 cbr 210 ------- 1 0.0 1.0 164 164
r 2.61834 0 1 cbr 210 ------- 1 0.0 1.0 162 162
+ 2.61875 0 1 cbr 210 ------- 1 0.0 1.0 165 165
- 2.61875 0 1 cbr 210 ------- 1 0.0 1.0 165 165
r 2.62209 0 1 cbr 210 ------- 1 0.0 1.0 163 163
+ 2.6225 0 1 cbr 210 ------- 1 0.0 1.0 166 166
- 2.6225 0 1 cbr 210 ------- 1 0.0 1.0 166 166
r 2.62584 0 1 cbr 210 ------- 1 0.0 1.0 164 164
+ 2.62625 0 1 cbr 210 ------- 1 0.0 1.0 167 167
- 2.62625 0 1 cbr 210 ------- 1 0.0 1.0 167 167
r 2.62959 0 1 cbr 210 ------- 1 0.0 1.0 165 165
+ 2.63 0 1 cbr 210 ------- 1 0.0 1.0 168 168
- 2.63 0 1 cbr 210 ------- 1 0.0 1.0 168 168
r 2.63334 0 1 cbr 210 ------- 1 0.0 1.0 166 166
+ 2.63375 0 1 cbr 210 ------- 1 0.0 1.0 169 169
- 2.63375 0 1 cbr 210 ------- 1 0.0 1.0 169 169
r 2.63709 0 1 cbr 210 ------- 1 0.0 1.0 167 167
+ 2.6375 0 1 cbr 210 ------- 1 0.0 1.0 170 170
- 2.6375 0 1 cbr 210 ------- 1 0.0 1.0 170 170
r 2.64084 0 1 cbr 210 ------- 1 0.0 1.0 168 168
+ 2.64125 0 1 cbr 210 ------- 1 0.0 1.0 171 171
- 2.64125 0 1 cbr 210 ------- 1 0.0 1.0 171 171
r 2.64459 0 1 cbr 210 ------- 1 0.0 1.0 169 169
+ 2.645 0 1 cbr 210 ------- 1 0.0 1.0 172 172
- 2.645 0 1 cbr 210 ------- 1 0.0 1.0 172 172
r 2.64834 0 1 cbr 210 ------- 1 0.0 1.0 170 170
+ 2.64875 0 1 cbr 210 ------- 1 0.0 1.0 173 173
- 2.64875 0 1 cbr 210 ------- 1 0.0 1.0 173 173
r 2.65209 0 1 cbr 210 ------- 1 0.0 1.0 171 171
+ 2.6525 0 1 cbr 210 ------- 1 0.0 1.0 174 174
- 2.6525 0 1 cbr 210 ------- 1 0.0 1.0 174 174
r 2.65584 0 1 cbr 210 ------- 1 0.0 1.0 172 172
+ 2.65625 0 1 cbr 210 ------- 1 0.0 1.0 175 175
- 2.65625 0 1 cbr 210 ------- 1 0.0 1.0 175 175
r 2.65959 0 1 cbr 210 ------- 1 0.0 1.0 173 173
+ 2.66 0 1 cbr 210 ------- 1 0.0 1.0 176 176
- 2.66 0 1 cbr 210 ------- 1 0.0 1.0 176 176
r 2.66334 0 1 cbr 210 ------- 1 0.0 1.0 174 174
+ 2.66375 0 1 cbr 210 ------- 1 0.0 1.0 177 177
- 2.66375 0 1 cbr 210 ------- 1 0.0 1.0 177 177
r 2.66709 0 1 cbr 210 ------- 1 0.0 1.0 175 175
+ 2.6675 0 1 cbr 210 ------- 1 0.0 1.0 178 178
- 2.6675 0 1 cbr 210 ------- 1 0.0 1.0 178 178
r 2.67084 0 1 cbr 210 ------- 1 0.0 1.0 176 176
+ 2.67125 0 1 cbr 210 ------- 1 0.0 1.0 179 179
- 2.67125 0 1 cbr 210 ------- 1 0.0 1.0 179 179
r 2.67459 0 1 cbr 210 ------- 1 0.0 1.0 177 177
+ 2.675 0 1 cbr 210 ------- 1 0.0 1.0 180 180
- 2.675 0 1 cbr 210 ------- 1 0.0 1.0 180 180
r 2.67834 0 1 cbr 210 ------- 1 0.0 1.0 178 178
+ 2.67875 0 1 cbr 210 ------- 1 0.0 1.0 181 181
- 2.67875 0 1 cbr 210 ------- 1 0.0 1.0 181 181
r 2.68209 0 1 cbr 210 ------- 1 0.0 1.0 179 179
+ 2.6825 0 1 cbr 210 ------- 1 0.0 1.0 182 182
- 2.6825 0 1 cbr 210 ------- 1 0.0 1.0 182 182
r 2.68584 0 1 cbr 210 ------- 1 0.0 1.0 180 180
+ 2.68625 0 1 cbr 210 ------- 1 0.0 1.0 183 183
- 2.68625 0 1 cbr 210 ------- 1 0.0 1.0 183 183
r 2.68959 0 1 cbr 210 ------- 1 0.0 1.0 181 181
+ 2.69 0 1 cbr 210 ------- 1 0.0 1.0 184 184
- 2.69 0 1 cbr 210 ------- 1 0.0 1.0 184 184
r 2.69334 0 1 cbr 210 ------- 1 0.0 1.0 182 182
+ 2.69375 0 1 cbr 210 ------- 1 0.0 1.0 185 185
- 2.69375 0 1 cbr 210 ------- 1 0.0 1.0 185 185
r 2.69709 0 1 cbr 210 ------- 1 0.0 1.0 183 183
+ 2.6975 0 1 cbr 210 ------- 1 0.0 1.0 186 186
- 2.6975 0 1 cbr 210 ------- 1 0.0 1.0 186 186
r 2.70084 0 1 cbr 210 ------- 1 0.0 1.0 184 184
+ 2.70125 0 1 cbr 210 ------- 1 0.0 1.0 187 187
- 2.70125 0 1 cbr 210 ------- 1 0.0 1.0 187 187
r 2.70459 0 1 cbr 210 ------- 1 0.0 1.0 185 185
+ 2.705 0 1 cbr 210 ------- 1 0.0 1.0 188 188
- 2.705 0 1 cbr 210 ------- 1 0.0 1.0 188 188
r 2.70834 0 1 cbr 210 ------- 1 0.0 1.0 186 186
+ 2.70875 0 1 cbr 210 ------- 1 0.0 1.0 189 189
- 2.70875 0 1 cbr 210 ------- 1 0.0 1.0 189 189
r 2.71209 0 1 cbr 210 ------- 1 0.0 1.0 187 187
+ 2.7125 0 1 cbr 210 ------- 1 0.0 1.0 190 190
- 2.7125 0 1 cbr 210 ------- 1 0.0 1.0 190 190
r 2.71584 0 1 cbr 210 ------- 1 0.0 1.0 188 188
+ 2.71625 0 1 cbr 210 ------- 1 0.0 1.0 191 191
- 2.71625 0 1 cbr 210 ------- 1 0.0 1.0 191 191
r 2.71959 0 1 cbr 210 ------- 1 0.0 1.0 189 189
+ 2.72 0 1 cbr 210 ------- 1 0.0 1.0 192 192
- 2.72 0 1 cbr 210 ------- 1 0.0 1.0 192 192
r 2.72334 0 1 cbr 210 ------- 1 0.0 1.0 190 190
+ 2.72375 0 1 cbr 210 ------- 1 0.0 1.0 193 193
- 2.72375 0 1 cbr 210 ------- 1 0.0 1.0 193 193
r 2.72709 0 1 cbr 210 ------- 1 0.0 1.0 191 191
+ 2.7275 0 1 cbr 210 ------- 1 0.0 1.0 194 194
- 2.7275 0 1 cbr 210 ------- 1 0.0 1.0 194 194
r 2.73084 0 1 cbr 210 ------- 1 0.0 1.0 192 192
+ 2.73125 0 1 cbr 210 ------- 1 0.0 1.0 195 195
- 2.73125 0 1 cbr 210 ------- 1 0.0 1.0 195 195
r 2.73459 0 1 cbr 210 ------- 1 0.0 1.0 193 193
+ 2.735 0 1 cbr 210 ------- 1 0.0 1.0 196 196
- 2.735 0 1 cbr 210 ------- 1 0.0 1.0 196 196
r 2.73834 0 1 cbr 210 ------- 1 0.0 1.0 194 194
+ 2.73875 0 1 cbr 210 ------- 1 0.0 1.0 197 197
- 2.73875 0 1 cbr 210 ------- 1 0.0 1.0 197 197
r 2.74209 0 1 cbr 210 ------- 1 0.0 1.0 195 195
+ 2.7425 0 1 cbr 210 ------- 1 0.0 1.0 198 198
- 2.7425 0 1 cbr 210 ------- 1 0.0 1.0 198 198
r 2.74584 0 1 cbr 210 ------- 1 0.0 1.0 196 196
+ 2.74625 0 1 cbr 210 ------- 1 0.0 1.0 199 199
- 2.74625 0 1 cbr 210 ------- 1 0.0 1.0 199 199
r 2.74959 0 1 cbr 210 ------- 1 0.0 1.0 197 197
+ 2.75 0 1 cbr 210 ------- 1 0.0 1.0 200 200
- 2.75 0 1 cbr 210 ------- 1 0.0 1.0 200 200
r 2.75334 0 1 cbr 210 ------- 1 0.0 1.0 198 198
+ 2.75375 0 1 cbr 210 ------- 1 0.0 1.0 201 201
- 2.75375 0 1 cbr 210 ------- 1 0.0 1.0 201 201
r 2.75709 0 1 cbr 210 ------- 1 0.0 1.0 199 199
+ 2.7575 0 1 cbr 210 ------- 1 0.0 1.0 202 202
- 2.7575 0 1 cbr 210 ------- 1 0.0 1.0 202 202
r 2.76084 0 1 cbr 210 ------- 1 0.0 1.0 200 200
+ 2.76125 0 1 cbr 210 ------- 1 0.0 1.0 203 203
- 2.76125 0 1 cbr 210 ------- 1 0.0 1.0 203 203
r 2.76459 0 1 cbr 210 ------- 1 0.0 1.0 201 201
+ 2.765 0 1 cbr 210 ------- 1 0.0 1.0 204 204
- 2.765 0 1 cbr 210 ------- 1 0.0 1.0 204 204
r 2.76834 0 1 cbr 210 ------- 1 0.0 1.0 202 202
+ 2.76875 0 1 cbr 210 ------- 1 0.0 1.0 205 205
- 2.76875 0 1 cbr 210 ------- 1 0.0 1.0 205 205
r 2.77209 0 1 cbr 210 ------- 1 0.0 1.0 203 203
+ 2.7725 0 1 cbr 210 ------- 1 0.0 1.0 206 206
- 2.7725 0 1 cbr 210 ------- 1 0.0 1.0 206 206
r 2.77584 0 1 cbr 210 ------- 1 0.0 1.0 204 204
+ 2.77625 0 1 cbr 210 ------- 1 0.0 1.0 207 207
- 2.77625 0 1 cbr 210 ------- 1 0.0 1.0 207 207
r 2.77959 0 1 cbr 210 ------- 1 0.0 1.0 205 205
+ 2.78 0 1 cbr 210 ------- 1 0.0 1.0 208 208
- 2.78 0 1 cbr 210 ------- 1 0.0 1.0 208 208
r 2.78334 0 1 cbr 210 ------- 1 0.0 1.0 206 206
+ 2.78375 0 1 cbr 210 ------- 1 0.0 1.0 209 209
- 2.78375 0 1 cbr 210 ------- 1 0.0 1.0 209 209
r 2.78709 0 1 cbr 210 ------- 1 0.0 1.0 207 207
+ 2.7875 0 1 cbr 210 ------- 1 0.0 1.0 210 210
- 2.7875 0 1 cbr 210 ------- 1 0.0 1.0 210 210
r 2.79084 0 1 cbr 210 ------- 1 0.0 1.0 208 208
+ 2.79125 0 1 cbr 210 ------- 1 0.0 1.0 211 211
- 2.79125 0 1 cbr 210 ------- 1 0.0 1.0 211 211
r 2.79459 0 1 cbr 210 ------- 1 0.0 1.0 209 209
+ 2.795 0 1 cbr 210 ------- 1 0.0 1.0 212 212
- 2.795 0 1 cbr 210 ------- 1 0.0 1.0 212 212
r 2.79834 0 1 cbr 210 ------- 1 0.0 1.0 210 210
+ 2.79875 0 1 cbr 210 ------- 1 0.0 1.0 213 213
- 2.79875 0 1 cbr 210 ------- 1 0.0 1.0 213 213
r 2.80209 0 1 cbr 210 ------- 1 0.0 1.0 211 211
+ 2.8025 0 1 cbr 210 ------- 1 0.0 1.0 214 214
- 2.8025 0 1 cbr 210 ------- 1 0.0 1.0 214 214
r 2.80584 0 1 cbr 210 ------- 1 0.0 1.0 212 212
+ 2.80625 0 1 cbr 210 ------- 1 0.0 1.0 215 215
- 2.80625 0 1 cbr 210 ------- 1 0.0 1.0 215 215
r 2.80959 0 1 cbr 210 ------- 1 0.0 1.0 213 213